<?xml version="1.0"?>
<VTKFile type="StructuredGrid">
<StructuredGrid WholeExtent="0 100 0 100 0 0">
<Piece Extent="0 100 0 100 0 0">
<Points>
<DataArray NumberOfComponents="3" type="Float32" format="ascii">
0 0 0
10 0 0
20 0 0
30 0 0
40 0 0
50 0 0
60 0 0
70 0 0
80 0 0
90 0 0
100 0 0
110 0 0
120 0 0
130 0 0
140 0 0
150 0 0
160 0 0
170 0 0
180 0 0
190 0 0
200 0 0
210 0 0
220 0 0
230 0 0
240 0 0
250 0 0
260 0 0
270 0 0
280 0 0
290 0 0
300 0 0
310 0 0
320 0 0
330 0 0
340 0 0
350 0 0
360 0 0
370 0 0
380 0 0
390 0 0
400 0 0
410 0 0
420 0 0
430 0 0
440 0 0
450 0 0
460 0 0
470 0 0
480 0 0
490 0 0
500 0 0
510 0 0
520 0 0
530 0 0
540 0 0
550 0 0
560 0 0
570 0 0
580 0 0
590 0 0
600 0 0
610 0 0
620 0 0
630 0 0
640 0 0
650 0 0
660 0 0
670 0 0
680 0 0
690 0 0
700 0 0
710 0 0
720 0 0
730 0 0
740 0 0
750 0 0
760 0 0
770 0 0
780 0 0
790 0 0
800 0 0
810 0 0
820 0 0
830 0 0
840 0 0
850 0 0
860 0 0
870 0 0
880 0 0
890 0 0
900 0 0
910 0 0
920 0 0
930 0 0
940 0 0
950 0 0
960 0 0
970 0 0
980 0 0
990 0 0
1000 0 0
0 10 0
10 10 0
20 10 0
30 10 0
40 10 0
50 10 0
60 10 0
70 10 0
80 10 0
90 10 0
100 10 0
110 10 0
120 10 0
130 10 0
140 10 0
150 10 0
160 10 0
170 10 0
180 10 0
190 10 0
200 10 0
210 10 0
220 10 0
230 10 0
240 10 0
250 10 0
260 10 0
270 10 0
280 10 0
290 10 0
300 10 0
310 10 0
320 10 0
330 10 0
340 10 0
350 10 0
360 10 0
370 10 0
380 10 0
390 10 0
400 10 0
410 10 0
420 10 0
430 10 0
440 10 0
450 10 0
460 10 0
470 10 0
480 10 0
490 10 0
500 10 0
510 10 0
520 10 0
530 10 0
540 10 0
550 10 0
560 10 0
570 10 0
580 10 0
590 10 0
600 10 0
610 10 0
620 10 0
630 10 0
640 10 0
650 10 0
660 10 0
670 10 0
680 10 0
690 10 0
700 10 0
710 10 0
720 10 0
730 10 0
740 10 0
750 10 0
760 10 0
770 10 0
780 10 0
790 10 0
800 10 0
810 10 0
820 10 0
830 10 0
840 10 0
850 10 0
860 10 0
870 10 0
880 10 0
890 10 0
900 10 0
910 10 0
920 10 0
930 10 0
940 10 0
950 10 0
960 10 0
970 10 0
980 10 0
990 10 0
1000 10 0
0 20 0
10 20 0
20 20 0
30 20 0
40 20 0
50 20 0
60 20 0
70 20 0
80 20 0
90 20 0
100 20 0
110 20 0
120 20 0
130 20 0
140 20 0
150 20 0
160 20 0
170 20 0
180 20 0
190 20 0
200 20 0
210 20 0
220 20 0
230 20 0
240 20 0
250 20 0
260 20 0
270 20 0
280 20 0
290 20 0
300 20 0
310 20 0
320 20 0
330 20 0
340 20 0
350 20 0
360 20 0
370 20 0
380 20 0
390 20 0
400 20 0
410 20 0
420 20 0
430 20 0
440 20 0
450 20 0
460 20 0
470 20 0
480 20 0
490 20 0
500 20 0
510 20 0
520 20 0
530 20 0
540 20 0
550 20 0
560 20 0
570 20 0
580 20 0
590 20 0
600 20 0
610 20 0
620 20 0
630 20 0
640 20 0
650 20 0
660 20 0
670 20 0
680 20 0
690 20 0
700 20 0
710 20 0
720 20 0
730 20 0
740 20 0
750 20 0
760 20 0
770 20 0
780 20 0
790 20 0
800 20 0
810 20 0
820 20 0
830 20 0
840 20 0
850 20 0
860 20 0
870 20 0
880 20 0
890 20 0
900 20 0
910 20 0
920 20 0
930 20 0
940 20 0
950 20 0
960 20 0
970 20 0
980 20 0
990 20 0
1000 20 0
0 30 0
10 30 0
20 30 0
30 30 0
40 30 0
50 30 0
60 30 0
70 30 0
80 30 0
90 30 0
100 30 0
110 30 0
120 30 0
130 30 0
140 30 0
150 30 0
160 30 0
170 30 0
180 30 0
190 30 0
200 30 0
210 30 0
220 30 0
230 30 0
240 30 0
250 30 0
260 30 0
270 30 0
280 30 0
290 30 0
300 30 0
310 30 0
320 30 0
330 30 0
340 30 0
350 30 0
360 30 0
370 30 0
380 30 0
390 30 0
400 30 0
410 30 0
420 30 0
430 30 0
440 30 0
450 30 0
460 30 0
470 30 0
480 30 0
490 30 0
500 30 0
510 30 0
520 30 0
530 30 0
540 30 0
550 30 0
560 30 0
570 30 0
580 30 0
590 30 0
600 30 0
610 30 0
620 30 0
630 30 0
640 30 0
650 30 0
660 30 0
670 30 0
680 30 0
690 30 0
700 30 0
710 30 0
720 30 0
730 30 0
740 30 0
750 30 0
760 30 0
770 30 0
780 30 0
790 30 0
800 30 0
810 30 0
820 30 0
830 30 0
840 30 0
850 30 0
860 30 0
870 30 0
880 30 0
890 30 0
900 30 0
910 30 0
920 30 0
930 30 0
940 30 0
950 30 0
960 30 0
970 30 0
980 30 0
990 30 0
1000 30 0
0 40 0
10 40 0
20 40 0
30 40 0
40 40 0
50 40 0
60 40 0
70 40 0
80 40 0
90 40 0
100 40 0
110 40 0
120 40 0
130 40 0
140 40 0
150 40 0
160 40 0
170 40 0
180 40 0
190 40 0
200 40 0
210 40 0
220 40 0
230 40 0
240 40 0
250 40 0
260 40 0
270 40 0
280 40 0
290 40 0
300 40 0
310 40 0
320 40 0
330 40 0
340 40 0
350 40 0
360 40 0
370 40 0
380 40 0
390 40 0
400 40 0
410 40 0
420 40 0
430 40 0
440 40 0
450 40 0
460 40 0
470 40 0
480 40 0
490 40 0
500 40 0
510 40 0
520 40 0
530 40 0
540 40 0
550 40 0
560 40 0
570 40 0
580 40 0
590 40 0
600 40 0
610 40 0
620 40 0
630 40 0
640 40 0
650 40 0
660 40 0
670 40 0
680 40 0
690 40 0
700 40 0
710 40 0
720 40 0
730 40 0
740 40 0
750 40 0
760 40 0
770 40 0
780 40 0
790 40 0
800 40 0
810 40 0
820 40 0
830 40 0
840 40 0
850 40 0
860 40 0
870 40 0
880 40 0
890 40 0
900 40 0
910 40 0
920 40 0
930 40 0
940 40 0
950 40 0
960 40 0
970 40 0
980 40 0
990 40 0
1000 40 0
0 50 0
10 50 0
20 50 0
30 50 0
40 50 0
50 50 0
60 50 0
70 50 0
80 50 0
90 50 0
100 50 0
110 50 0
120 50 0
130 50 0
140 50 0
150 50 0
160 50 0
170 50 0
180 50 0
190 50 0
200 50 0
210 50 0
220 50 0
230 50 0
240 50 0
250 50 0
260 50 0
270 50 0
280 50 0
290 50 0
300 50 0
310 50 0
320 50 0
330 50 0
340 50 0
350 50 0
360 50 0
370 50 0
380 50 0
390 50 0
400 50 0
410 50 0
420 50 0
430 50 0
440 50 0
450 50 0
460 50 0
470 50 0
480 50 0
490 50 0
500 50 0
510 50 0
520 50 0
530 50 0
540 50 0
550 50 0
560 50 0
570 50 0
580 50 0
590 50 0
600 50 0
610 50 0
620 50 0
630 50 0
640 50 0
650 50 0
660 50 0
670 50 0
680 50 0
690 50 0
700 50 0
710 50 0
720 50 0
730 50 0
740 50 0
750 50 0
760 50 0
770 50 0
780 50 0
790 50 0
800 50 0
810 50 0
820 50 0
830 50 0
840 50 0
850 50 0
860 50 0
870 50 0
880 50 0
890 50 0
900 50 0
910 50 0
920 50 0
930 50 0
940 50 0
950 50 0
960 50 0
970 50 0
980 50 0
990 50 0
1000 50 0
0 60 0
10 60 0
20 60 0
30 60 0
40 60 0
50 60 0
60 60 0
70 60 0
80 60 0
90 60 0
100 60 0
110 60 0
120 60 0
130 60 0
140 60 0
150 60 0
160 60 0
170 60 0
180 60 0
190 60 0
200 60 0
210 60 0
220 60 0
230 60 0
240 60 0
250 60 0
260 60 0
270 60 0
280 60 0
290 60 0
300 60 0
310 60 0
320 60 0
330 60 0
340 60 0
350 60 0
360 60 0
370 60 0
380 60 0
390 60 0
400 60 0
410 60 0
420 60 0
430 60 0
440 60 0
450 60 0
460 60 0
470 60 0
480 60 0
490 60 0
500 60 0
510 60 0
520 60 0
530 60 0
540 60 0
550 60 0
560 60 0
570 60 0
580 60 0
590 60 0
600 60 0
610 60 0
620 60 0
630 60 0
640 60 0
650 60 0
660 60 0
670 60 0
680 60 0
690 60 0
700 60 0
710 60 0
720 60 0
730 60 0
740 60 0
750 60 0
760 60 0
770 60 0
780 60 0
790 60 0
800 60 0
810 60 0
820 60 0
830 60 0
840 60 0
850 60 0
860 60 0
870 60 0
880 60 0
890 60 0
900 60 0
910 60 0
920 60 0
930 60 0
940 60 0
950 60 0
960 60 0
970 60 0
980 60 0
990 60 0
1000 60 0
0 70 0
10 70 0
20 70 0
30 70 0
40 70 0
50 70 0
60 70 0
70 70 0
80 70 0
90 70 0
100 70 0
110 70 0
120 70 0
130 70 0
140 70 0
150 70 0
160 70 0
170 70 0
180 70 0
190 70 0
200 70 0
210 70 0
220 70 0
230 70 0
240 70 0
250 70 0
260 70 0
270 70 0
280 70 0
290 70 0
300 70 0
310 70 0
320 70 0
330 70 0
340 70 0
350 70 0
360 70 0
370 70 0
380 70 0
390 70 0
400 70 0
410 70 0
420 70 0
430 70 0
440 70 0
450 70 0
460 70 0
470 70 0
480 70 0
490 70 0
500 70 0
510 70 0
520 70 0
530 70 0
540 70 0
550 70 0
560 70 0
570 70 0
580 70 0
590 70 0
600 70 0
610 70 0
620 70 0
630 70 0
640 70 0
650 70 0
660 70 0
670 70 0
680 70 0
690 70 0
700 70 0
710 70 0
720 70 0
730 70 0
740 70 0
750 70 0
760 70 0
770 70 0
780 70 0
790 70 0
800 70 0
810 70 0
820 70 0
830 70 0
840 70 0
850 70 0
860 70 0
870 70 0
880 70 0
890 70 0
900 70 0
910 70 0
920 70 0
930 70 0
940 70 0
950 70 0
960 70 0
970 70 0
980 70 0
990 70 0
1000 70 0
0 80 0
10 80 0
20 80 0
30 80 0
40 80 0
50 80 0
60 80 0
70 80 0
80 80 0
90 80 0
100 80 0
110 80 0
120 80 0
130 80 0
140 80 0
150 80 0
160 80 0
170 80 0
180 80 0
190 80 0
200 80 0
210 80 0
220 80 0
230 80 0
240 80 0
250 80 0
260 80 0
270 80 0
280 80 0
290 80 0
300 80 0
310 80 0
320 80 0
330 80 0
340 80 0
350 80 0
360 80 0
370 80 0
380 80 0
390 80 0
400 80 0
410 80 0
420 80 0
430 80 0
440 80 0
450 80 0
460 80 0
470 80 0
480 80 0
490 80 0
500 80 0
510 80 0
520 80 0
530 80 0
540 80 0
550 80 0
560 80 0
570 80 0
580 80 0
590 80 0
600 80 0
610 80 0
620 80 0
630 80 0
640 80 0
650 80 0
660 80 0
670 80 0
680 80 0
690 80 0
700 80 0
710 80 0
720 80 0
730 80 0
740 80 0
750 80 0
760 80 0
770 80 0
780 80 0
790 80 0
800 80 0
810 80 0
820 80 0
830 80 0
840 80 0
850 80 0
860 80 0
870 80 0
880 80 0
890 80 0
900 80 0
910 80 0
920 80 0
930 80 0
940 80 0
950 80 0
960 80 0
970 80 0
980 80 0
990 80 0
1000 80 0
0 90 0
10 90 0
20 90 0
30 90 0
40 90 0
50 90 0
60 90 0
70 90 0
80 90 0
90 90 0
100 90 0
110 90 0
120 90 0
130 90 0
140 90 0
150 90 0
160 90 0
170 90 0
180 90 0
190 90 0
200 90 0
210 90 0
220 90 0
230 90 0
240 90 0
250 90 0
260 90 0
270 90 0
280 90 0
290 90 0
300 90 0
310 90 0
320 90 0
330 90 0
340 90 0
350 90 0
360 90 0
370 90 0
380 90 0
390 90 0
400 90 0
410 90 0
420 90 0
430 90 0
440 90 0
450 90 0
460 90 0
470 90 0
480 90 0
490 90 0
500 90 0
510 90 0
520 90 0
530 90 0
540 90 0
550 90 0
560 90 0
570 90 0
580 90 0
590 90 0
600 90 0
610 90 0
620 90 0
630 90 0
640 90 0
650 90 0
660 90 0
670 90 0
680 90 0
690 90 0
700 90 0
710 90 0
720 90 0
730 90 0
740 90 0
750 90 0
760 90 0
770 90 0
780 90 0
790 90 0
800 90 0
810 90 0
820 90 0
830 90 0
840 90 0
850 90 0
860 90 0
870 90 0
880 90 0
890 90 0
900 90 0
910 90 0
920 90 0
930 90 0
940 90 0
950 90 0
960 90 0
970 90 0
980 90 0
990 90 0
1000 90 0
0 100 0
10 100 0
20 100 0
30 100 0
40 100 0
50 100 0
60 100 0
70 100 0
80 100 0
90 100 0
100 100 0
110 100 0
120 100 0
130 100 0
140 100 0
150 100 0
160 100 0
170 100 0
180 100 0
190 100 0
200 100 0
210 100 0
220 100 0
230 100 0
240 100 0
250 100 0
260 100 0
270 100 0
280 100 0
290 100 0
300 100 0
310 100 0
320 100 0
330 100 0
340 100 0
350 100 0
360 100 0
370 100 0
380 100 0
390 100 0
400 100 0
410 100 0
420 100 0
430 100 0
440 100 0
450 100 0
460 100 0
470 100 0
480 100 0
490 100 0
500 100 0
510 100 0
520 100 0
530 100 0
540 100 0
550 100 0
560 100 0
570 100 0
580 100 0
590 100 0
600 100 0
610 100 0
620 100 0
630 100 0
640 100 0
650 100 0
660 100 0
670 100 0
680 100 0
690 100 0
700 100 0
710 100 0
720 100 0
730 100 0
740 100 0
750 100 0
760 100 0
770 100 0
780 100 0
790 100 0
800 100 0
810 100 0
820 100 0
830 100 0
840 100 0
850 100 0
860 100 0
870 100 0
880 100 0
890 100 0
900 100 0
[...]
<CellData>
<DataArray Name="h" type="Float32" format="ascii">
10.9676
10.9199
10.8682
10.8123
10.7514
10.6851
10.613
10.5355
10.4534
10.3685
10.2827
10.1981
10.1162
10.0385
9.96598
9.90002
9.84088
9.78907
9.74501
9.70892
9.68039
9.65908
9.64393
9.6345
9.62995
9.62995
9.63449
9.64392
9.65904
9.68029
9.70868
9.74445
9.78787
9.83844
9.89538
9.9577
10.0246
10.0942
10.1653
10.2369
10.3079
10.3778
10.4461
10.5124
10.5767
10.6389
10.699
10.7571
10.813
10.8665
10.9167
10.9619
10.9994
11.0246
11.0317
11.0133
10.9625
10.8753
10.7544
10.6105
10.4609
10.3238
10.2119
10.1296
10.0743
10.04
10.0203
10.0097
10.0044
10.0019
10.0007
10.0003
10.0001
10
10
10
10
10
10
10
10
10
10
10
10
10
10
10
10
10
10
10
10
10
10
10
10
10
10
10
10.9199
10.8698
10.8157
10.7574
10.6943
10.6259
10.5516
10.4718
10.3871
10.299
10.2095
10.1207
10.0344
9.95238
9.87605
9.80746
9.74645
9.69353
9.64906
9.61321
9.58535
9.56497
9.55068
9.54199
9.53784
9.53784
9.54198
9.55066
9.56491
9.5852
9.61287
9.64832
9.69198
9.74338
9.80186
9.86644
9.93677
10.0105
10.0863
10.1628
10.2391
10.3142
10.3876
10.4589
10.5278
10.5943
10.6584
10.7201
10.7795
10.8363
10.89
10.9392
10.9817
11.0137
11.03
11.024
10.9887
10.9191
10.8145
10.6818
10.535
10.3917
10.2672
10.1702
10.1014
10.0568
10.0299
10.0149
10.007
10.0031
10.0013
10.0005
10.0002
10.0001
10
10
10
10
10
10
10
10
10
10
10
10
10
10
10
10
10
10
10
10
10
10
10
10
10
10
10.8682
10.8157
10.7588
10.6975
10.6313
10.5598
10.4828
10.4003
10.3131
10.2224
10.13
10.0379
9.94834
9.8632
9.78436
9.7143
9.65259
9.59983
9.5562
9.52166
9.49543
9.47674
9.46384
9.45624
9.45267
9.45267
9.45623
9.46381
9.47665
9.49521
9.52117
9.55516
9.59776
9.64871
9.70749
9.77312
9.84575
9.92277
10.0025
10.0836
10.1649
10.2453
10.324
10.4004
10.4743
10.5454
10.6137
10.6792
10.7419
10.8017
10.858
10.9097
10.9549
10.9907
11.0128
11.0159
10.9943
10.9428
10.8591
10.7456
10.6108
10.4692
10.3364
10.2249
10.1405
10.0823
10.0453
10.0235
10.0115
10.0053
10.0023
10.0009
10.0004
10.0001
10
10
10
10
10
10
10
10
10
10
10
10
10
10
10
10
10
10
10
10
10
10
10
10
10
10
10.8123
10.7574
10.6975
10.6327
10.5627
10.4876
10.4072
10.3219
10.2322
10.1392
10.0447
9.95036
9.85864
9.77184
9.69178
9.62161
9.56061
9.50935
9.46779
9.43578
9.4121
9.39585
9.38494
9.37875
9.3759
9.3759
9.37873
9.38488
9.39571
9.41177
9.43507
9.46636
9.50664
9.55575
9.61344
9.67885
9.75263
9.83176
9.91475
9.99988
10.0858
10.1712
10.2551
10.3369
10.4159
10.4919
10.5646
10.6341
10.7002
10.7626
10.8209
10.874
10.9205
10.958
10.9837
10.9938
10.9841
10.9503
10.8888
10.7984
10.6824
10.5499
10.4147
10.2917
10.1912
10.1172
10.0673
10.0364
10.0185
10.0089
10.004
10.0017
10.0007
10.0003
10.0001
10
10
10
10
10
10
10
10
10
10
10
10
10
10
10
10
10
10
10
10
10
10
10
10
10
10.7514
10.6943
10.6313
10.5627
10.4888
10.4097
10.3258
10.2374
10.1454
10.0505
9.95432
9.85886
9.76642
9.67943
9.60015
9.5317
9.47297
9.42454
9.38625
9.35791
9.3376
9.3244
9.31572
9.31122
9.30922
9.30921
9.31119
9.31563
9.32418
9.33712
9.35693
9.38435
9.42109
9.46705
9.52219
9.58572
9.65889
9.73878
9.82386
9.91233
10.0023
10.0923
10.1814
10.2683
10.3526
10.4336
10.5109
10.5844
10.6537
10.7185
10.7783
10.8322
10.8791
10.9177
10.9461
10.9622
10.9633
10.9458
10.9057
10.8393
10.7453
10.6277
10.4966
10.3668
10.2522
10.1616
10.0968
10.0544
10.0288
10.0144
10.0068
10.003
10.0013
10.0005
10.0002
10.0001
10
10
10
10
10
10
10
10
10
10
10
10
10
10
10
10
10
10
10
10
10
10
10
10
10.6851
10.6259
10.5598
10.4876
10.4097
10.3267
10.2393
10.1481
10.0538
9.95734
9.86041
9.76496
9.67352
9.58823
9.51125
9.44606
9.39115
9.34706
9.31341
9.28977
9.27372
9.26424
9.25837
9.25582
9.25476
9.25475
9.25576
9.25823
9.26393
9.27307
9.28847
9.31099
9.34282
9.3842
9.43534
9.49568
9.56692
9.64612
9.73155
9.82199
9.91531
10.0095
10.1031
10.195
10.2843
10.3702
10.452
10.5294
10.6018
10.6688
10.7299
10.7845
10.832
10.8718
10.9032
10.9252
10.9361
10.9333
10.9124
10.8684
10.797
10.6978
10.5766
10.4458
10.3209
10.2149
10.1342
10.0785
10.0431
10.0223
10.0109
10.005
10.0022
10.0009
10.0003
10.0001
10
10
10
10
10
10
10
10
10
10
10
10
10
10
10
10
10
10
10
10
10
10
10
10
10.613
10.5516
10.4828
10.4072
10.3258
10.2393
10.1488
10.055
9.95872
9.86121
9.7647
9.671
9.58182
9.49952
9.42615
9.36569
9.31615
9.27792
9.25036
9.23248
9.22166
9.21657
9.21412
9.21383
9.2139
9.21388
9.21375
9.21393
9.21615
9.22081
9.23084
9.24741
9.27294
9.30828
9.35403
9.40989
9.47823
9.55547
9.64025
9.73083
9.82585
9.9234
10.021
10.1173
10.2112
10.3016
10.3877
10.4687
10.5441
10.6133
10.6758
10.7316
10.7803
10.8223
10.8574
10.8857
10.906
10.916
10.9115
10.8871
10.8368
10.7573
10.6501
10.5241
10.3941
10.2756
10.1793
10.1089
10.062
10.0332
10.0168
10.008
10.0036
10.0015
10.0006
10.0002
10.0001
10
10
10
10
10
10
10
10
10
10
10
10
10
10
10
10
10
10
10
10
10
10
10
10.5355
10.4718
10.4003
10.3219
10.2374
10.1481
10.055
9.95898
9.86141
9.76454
9.66964
9.57831
9.49239
9.41445
9.34659
9.29269
9.25023
9.21935
9.19917
9.18818
9.18336
9.1832
9.18438
9.18659
9.18794
9.18791
9.18648
9.18412
9.18265
9.18228
9.18619
9.19572
9.21376
9.24172
9.28052
9.33028
9.39391
9.46807
9.55113
9.641
9.73623
9.83509
9.93581
10.0358
10.1335
10.2279
10.3178
10.4022
10.4805
10.5521
10.6167
10.6745
10.7257
10.771
10.811
10.8458
10.8747
10.8957
10.9048
10.8968
10.8653
10.805
10.7142
10.598
10.4683
10.3413
10.2312
10.1459
10.0861
10.0477
10.0249
10.0123
10.0057
10.0025
10.001
10.0004
10.0001
10.0001
10
10
10
10
10
10
10
10
10
10
10
10
10
10
10
10
10
10
10
10
10
10
10.4534
10.3871
10.3131
10.2322
10.1454
10.0538
9.95872
9.86141
9.76432
9.66898
9.57631
9.48827
9.40723
9.33539
9.27481
9.22942
9.19588
9.174
9.16248
9.15947
9.16129
9.16651
9.17158
9.17638
9.179
9.17896
9.17623
9.17124
9.16583
9.15998
9.15716
9.15862
9.16796
9.18704
9.21726
9.25913
9.31643
9.38573
9.46542
9.55356
9.64804
9.74682
9.84847
9.95106
10.0518
10.1495
10.2426
10.3302
10.4115
10.486
10.5536
10.6146
10.6697
10.7196
10.7652
10.8067
10.8434
10.8736
10.8938
10.8993
10.8838
10.8412
10.7677
10.6644
10.54
10.4092
10.2882
10.1888
10.1154
10.0661
10.0357
10.0181
10.0087
10.004
10.0017
10.0007
10.0003
10.0001
10
10
10
10
10
10
10
10
10
10
10
10
10
10
10
10
10
10
10
10
10
10
10.3685
10.299
10.2224
10.1392
10.0505
9.95735
9.86121
9.76454
9.66898
9.57557
9.48631
9.40316
9.32859
9.26474
9.2135
9.17861
9.15588
9.14463
9.14308
9.14884
9.15778
9.16855
9.17753
9.18484
9.18866
9.18861
9.18465
9.17711
9.16774
9.15628
9.14628
9.13895
9.13842
9.14712
9.16702
9.19915
9.24813
9.3107
9.3853
9.46992
9.56229
9.65993
9.76108
9.86433
9.96712
10.0671
10.163
10.2537
10.3382
10.4163
10.4878
10.5533
10.6134
10.669
10.7206
10.7685
10.8122
10.8501
10.8794
10.8959
10.8939
10.8671
10.8103
10.7218
10.6065
10.4765
10.3483
10.2366
10.1497
10.0886
10.0493
10.0258
10.0128
10.006
10.0027
10.0011
10.0004
10.0002
10.0001
10
10
10
10
10
10
10
10
10
10
10
10
10
10
10
10
10
10
10
10
10
10.2827
10.2095
10.13
10.0447
9.95432
9.86042
9.7647
9.66964
9.57631
9.48631
9.40188
9.32537
9.25908
9.20521
9.16545
9.14313
9.13308
9.13389
9.14321
9.15819
9.17427
9.19033
9.20287
9.21241
9.21727
9.21721
9.21219
9.20239
9.1894
9.17263
9.15548
9.13902
9.12782
9.12484
9.13269
9.15311
9.19167
9.24542
9.31293
9.39212
9.48059
9.57588
9.6754
9.77754
9.88082
9.98244
10.0806
10.1741
10.2622
10.3445
10.421
10.4919
10.5578
10.6195
10.6772
10.7313
10.7812
10.8256
10.8624
10.8879
10.8972
10.8842
10.843
10.7697
10.6661
10.541
10.4094
10.2879
10.1884
10.115
10.0659
10.0355
10.0181
10.0087
10.004
10.0017
10.0007
10.0003
10.0001
10
10
10
10
10
10
10
10
10
10
10
10
10
10
10
10
10
10
10
10
10
10.1981
10.1207
10.0379
9.95036
9.85886
9.76496
9.671
9.57831
9.48827
9.40316
9.32537
9.25725
9.20129
9.15954
9.13342
9.12562
9.12974
9.14355
9.16402
9.18786
9.21035
9.23083
9.24614
9.25731
9.26289
9.26281
9.25705
9.2456
9.22984
9.20866
9.18517
9.16001
9.13797
9.12249
9.11688
9.1237
9.14968
9.19241
9.25067
9.32244
9.40514
9.49616
9.59288
9.69302
9.79504
9.89732
9.99726
10.0936
10.1854
10.2723
10.3542
10.4311
10.5032
10.5711
10.6348
10.6946
10.75
10.8002
10.8432
10.8762
10.895
10.8939
10.8668
10.8085
10.7179
10.6006
10.4694
10.3412
10.2304
10.145
10.0855
10.0474
10.0248
10.0123
10.0057
10.0025
10.0011
10.0004
10.0002
10.0001
10
10
10
10
10
10
10
10
10
10
10
10
10
10
10
10
10
10
10
10
10.1162
10.0344
9.94834
9.85864
9.76643
9.67352
9.58182
9.49239
9.40723
9.32859
9.25908
9.20129
9.15769
9.13017
9.11962
9.12772
9.14675
9.17346
9.20424
9.23558
9.26295
9.28636
9.30328
9.31523
9.32112
9.32104
9.31496
9.30273
9.28537
9.26131
9.23308
9.20067
9.16872
9.14093
9.12117
9.11301
9.12443
9.15395
9.20079
9.26305
9.3381
9.42319
9.51553
9.61273
9.71265
9.81407
9.9153
10.0141
10.1096
10.2012
10.2885
10.3713
10.4497
10.5236
10.5931
10.6582
10.7187
10.7739
10.8224
10.8619
10.8887
10.8979
10.8832
10.8389
10.7617
10.6542
10.5265
10.3946
10.2747
10.178
10.1078
10.0613
10.0329
10.0167
10.008
10.0036
10.0016
10.0006
10.0002
10.0001
10
10
10
10
10
10
10
10
10
10
10
10
10
10
10
10
10
10
10
10
10.0385
9.95238
9.8632
9.77184
9.67943
9.58823
9.49952
9.41445
9.33539
9.26474
9.20521
9.15954
9.13017
9.11861
9.12487
9.14919
9.18253
9.22067
9.2597
9.29625
9.32637
9.35095
9.3682
9.38007
9.38584
9.38576
9.37979
9.36766
9.35003
9.32491
9.29411
9.25682
9.2171
9.17852
9.14526
9.12177
9.11732
9.1318
9.16523
9.21604
9.28162
9.35908
9.44565
9.53861
9.63589
9.73564
9.83685
9.93777
10.0365
10.1323
10.2246
10.313
10.3971
10.4767
10.5517
10.6219
10.6872
10.7471
10.8005
10.8456
10.8794
10.8973
10.8935
10.8619
10.7978
10.7013
10.5795
10.4466
10.3199
10.213
10.1323
10.0771
10.0423
10.0219
10.0108
10.005
10.0022
10.0009
10.0004
10.0001
10
10
10
10
10
10
10
10
10
10
10
10
10
10
10
10
10
10
10
10
9.96598
9.87605
9.78436
9.69178
9.60015
9.51125
9.42615
9.34659
9.27481
9.2135
9.16545
9.13342
9.11962
9.12487
9.14795
9.18717
9.23263
9.27942
9.32372
9.36271
9.39339
9.41748
9.43395
9.44504
9.45039
9.45031
9.4448
9.43347
9.4167
9.39223
9.36113
9.32177
9.2773
9.23074
9.18613
9.14859
9.12819
9.12666
9.14523
9.18297
9.23751
9.30594
9.38531
9.47295
9.56657
9.66399
9.76437
9.86629
9.96741
10.0666
10.1632
10.2564
10.3457
10.4305
10.5105
10.5856
10.6555
10.7199
10.7779
10.8281
10.8678
10.8933
10.899
10.8788
10.8271
10.7418
10.6274
10.4961
10.3648
10.2492
10.1586
10.0945
10.053
10.028
10.0141
10.0067
10.003
10.0013
10.0005
10.0002
10.0001
10
10
10
10
10
10
10
10
10
10
10
10
10
10
10
10
10
10
10
9.90002
9.80746
9.7143
9.62161
9.5317
9.44606
9.36569
9.29269
9.22942
9.17861
9.14313
9.12562
9.12772
9.14919
9.18717
9.23785
9.29119
9.34196
9.38698
9.42438
9.45235
9.47336
9.48723
9.49632
9.50063
9.50056
9.49612
9.48687
9.47281
9.4516
9.4235
9.38614
9.34148
9.29158
9.23984
9.19162
9.15709
9.14007
9.14335
9.16705
9.20937
9.26754
9.33858
9.41971
9.50857
9.60269
9.70112
9.80277
9.905
10.0064
10.1061
10.203
10.2965
10.3857
10.4704
10.55
10.6243
10.6929
10.7552
10.81
10.8551
10.887
10.9009
10.8907
10.8502
10.776
10.6699
10.5419
10.4081
10.2855
10.1858
10.1131
10.0646
10.0349
10.0178
10.0086
10.004
10.0017
10.0007
10.0003
10.0001
10
10
10
10
10
10
10
10
10
10
10
10
10
10
10
10
10
10
10
9.84088
9.74645
9.65259
9.56061
9.47297
9.39115
9.31615
9.25023
9.19588
9.15588
9.13308
9.12974
9.14675
9.18253
9.23263
9.29119
9.34896
9.40098
9.4449
9.47981
9.50501
9.52329
9.53509
9.5426
9.54612
9.54608
9.54248
9.53489
9.52303
9.50476
9.47973
9.44527
9.40223
9.35172
9.29622
9.24085
9.19488
9.16417
9.15306
9.16298
9.19292
9.24048
9.30272
9.37677
9.4601
9.55046
9.64629
9.74645
9.84883
9.95137
10.053
10.1527
10.2496
10.3427
10.4314
10.5152
10.5937
10.6664
10.7328
10.7919
10.8417
10.8793
10.9003
10.8987
10.8683
10.8043
10.7069
10.5835
10.4489
10.3209
10.2132
10.1323
10.077
10.0423
10.022
10.0108
10.0051
10.0022
10.0009
10.0004
10.0001
10.0001
10
10
10
10
10
10
10
10
10
10
10
10
10
10
10
10
10
10
9.78907
9.69353
9.59983
9.50935
9.42454
9.34706
9.27792
9.21935
9.174
9.14463
9.1339
9.14355
9.17346
9.22067
9.27942
9.34196
9.40098
9.45198
9.49352
9.52548
9.54804
9.56393
9.57411
9.58037
9.58329
9.58328
9.58034
9.5741
9.56401
9.54834
9.52625
9.49515
9.45498
9.40605
9.34994
9.29121
9.23718
9.19556
9.17198
9.16926
9.18738
9.22447
9.27778
9.34446
9.42189
9.50767
9.60015
9.69816
9.79958
9.90221
10.0049
10.1064
10.2058
10.302
10.3943
10.4819
10.5643
10.641
10.7113
10.7743
10.8284
10.871
10.8979
10.9038
10.8822
10.8276
10.7385
10.6204
10.4865
10.3545
10.24
10.1515
10.0896
10.05
10.0263
10.0132
10.0063
10.0028
10.0012
10.0005
10.0002
10.0001
10
10
10
10
10
10
10
10
10
10
10
10
10
10
10
10
10
10
9.74501
9.64906
9.5562
9.46779
9.38625
9.31341
9.25037
9.19917
9.16248
9.14308
9.14321
9.16402
9.20424
9.2597
9.32372
9.38698
9.4449
9.49352
9.53212
9.56105
9.58124
9.59506
9.6039
9.6091
9.61152
9.61153
9.60917
9.60409
9.59548
9.58211
9.56269
9.53498
9.49822
9.45218
9.39771
9.33879
9.27999
9.23056
9.19702
9.18341
9.19081
9.21803
9.26264
9.32192
9.39315
9.47393
9.56246
9.65753
9.75715
9.85899
9.96178
10.0643
10.1655
10.2642
10.3595
10.4505
10.5365
10.6168
10.6908
10.7575
10.8155
10.8624
10.8945
10.9067
10.8926
10.8463
10.7651
10.6525
10.5202
10.3855
10.2653
10.1701
10.1021
10.0577
10.0308
10.0156
10.0075
10.0034
10.0015
10.0006
10.0002
10.0001
10
10
10
10
10
10
10
10
10
10
10
10
10
10
10
10
10
10
9.70892
9.61321
9.52166
9.43578
9.35791
9.28977
9.23248
9.18818
9.15947
9.14884
9.15819
9.18786
9.23558
9.29625
9.36271
9.42438
9.47981
9.52548
9.56105
9.58714
9.60523
9.6172
9.62486
9.62908
9.63102
9.63107
9.62926
9.62525
9.61797
9.60665
9.58959
9.56508
9.53174
9.48911
9.43758
9.38072
9.31987
9.26557
9.22481
9.20253
9.20085
9.2193
9.25589
9.30805
9.37314
9.44883
9.53304
9.62459
9.72175
9.82212
9.92428
10.0271
10.1293
10.2297
10.3274
10.4213
10.5105
10.5941
10.6715
10.7417
10.8032
10.8539
10.8905
10.908
10.9003
10.8612
10.7869
10.6796
10.5495
10.4132
10.2885
10.1875
10.1139
10.0651
10.0352
10.018
10.0088
10.0041
10.0018
10.0007
10.0003
10.0001
10
10
10
10
10
10
10
10
10
10
10
10
10
10
10
10
10
10
9.68039
9.58535
9.49543
9.4121
9.3376
9.27373
9.22167
9.18336
9.16129
9.15778
9.17427
9.21035
9.26295
9.32637
9.39339
9.45235
9.50501
9.54804
9.58124
9.60523
9.62195
9.63265
9.63956
9.64309
9.64471
9.64479
9.64337
9.64015
9.63375
9.62387
9.60842
9.5863
9.55569
9.51608
9.4677
9.41391
9.35284
9.29605
9.25063
9.22208
9.21335
9.22466
9.2545
9.3005
9.3601
9.43102
9.51112
9.59926
9.69382
9.79237
9.8935
9.99601
10.0987
10.2003
10.2998
10.3959
10.4878
10.5743
10.6546
10.7278
10.7923
10.8463
10.8865
10.9084
10.9059
10.8727
10.8044
10.702
10.5742
10.4371
10.3089
10.203
10.1247
10.072
10.0392
10.0203
10.01
10.0047
10.0021
10.0009
10.0004
10.0001
10
10
10
10
10
10
10
10
10
10
10
10
10
10
10
10
10
10
9.65908
9.56497
9.47674
9.39585
9.3244
9.26424
9.21657
9.1832
9.16652
9.16855
9.19033
9.23083
9.28636
9.35095
9.41747
9.47336
9.52328
9.56393
9.59506
9.6172
9.63265
9.64211
9.6482
9.65096
9.6522
9.65231
9.65132
9.64895
9.64348
9.635
9.62102
9.60099
9.57274
9.53581
9.49048
9.44005
9.37975
9.32201
9.27381
9.24094
9.22693
9.23265
9.25698
9.2978
9.35266
9.41927
9.49562
9.5806
9.67251
9.76908
9.86891
9.97079
10.0735
10.1758
10.2765
10.3744
10.4683
10.5572
10.64
10.7157
10.7829
10.8396
10.8828
10.9081
10.9098
10.8813
10.818
10.7196
10.594
10.4566
10.3258
10.2161
10.1339
10.0779
10.0428
10.0223
10.011
10.0052
10.0023
10.001
10.0004
10.0002
10.0001
10
10
10
10
10
10
10
10
10
10
10
10
10
10
10
10
10
9.64393
9.55068
9.46385
9.38494
9.31572
9.25837
9.21412
9.18438
9.17158
9.17753
9.20287
9.24614
9.30328
9.3682
9.43395
9.48723
9.53509
9.57411
9.6039
9.62486
9.63956
9.64819
9.65374
9.65594
9.6569
9.65703
9.65637
9.65462
9.64978
9.64225
9.62917
9.61051
9.58381
9.54875
9.50572
9.4581
9.39877
9.34087
9.29117
9.25558
9.23802
9.2398
9.26014
9.29716
9.34842
9.41164
9.4851
9.56765
9.65744
9.75232
9.851
9.95223
10.0548
10.1575
10.259
10.3581
10.4536
10.5442
10.6289
10.7066
10.7757
10.8345
10.8799
10.9078
10.9125
10.8876
10.8279
10.7327
10.609
10.4716
10.339
10.2264
10.1411
10.0826
10.0456
10.0239
10.0119
10.0056
10.0025
10.0011
10.0004
10.0002
10.0001
10
10
10
10
10
10
10
10
10
10
10
10
10
10
10
10
10
9.6345
9.54199
9.45624
9.37875
9.31122
9.25582
9.21383
9.18659
9.17638
9.18484
9.21241
9.25731
9.31523
9.38006
9.44504
9.49632
9.5426
9.58037
9.6091
9.62908
9.64309
9.65096
9.65594
9.65762
9.6583
9.65845
9.6581
9.65691
9.6527
9.646
9.63372
9.61617
9.59068
9.55703
9.51573
9.47027
9.41185
9.35413
9.3037
9.26653
9.24674
9.24595
9.26362
9.29799
9.34674
9.4076
9.47895
9.55966
9.64782
9.7414
9.83912
9.93974
10.0421
10.1449
10.2468
10.3467
10.4432
10.535
10.621
10.7
10.7706
10.8308
10.8778
10.9074
10.9141
10.8916
10.8343
10.7413
10.619
10.4816
10.3479
10.2335
10.1461
10.0859
10.0476
10.025
10.0125
10.0059
10.0027
10.0012
10.0005
10.0002
10.0001
10
10
10
10
10
10
10
10
10
10
10
10
10
10
10
10
10
9.62995
9.53785
9.45267
9.3759
9.30922
9.25476
9.2139
9.18794
9.179
9.18866
9.21727
9.26289
9.32112
9.38584
9.45039
9.50063
9.54613
9.58329
9.61151
9.63102
9.64471
9.6522
9.6569
9.6583
9.65885
9.659
9.65881
9.65792
9.65401
9.64773
9.63583
9.61881
9.5939
9.56094
9.52051
9.47616
9.41823
9.36068
9.30998
9.2721
9.25126
9.24923
9.2656
9.29864
9.34612
9.4058
9.47608
9.55583
9.64315
9.73605
9.83324
9.93353
10.0357
10.1385
10.2407
10.3409
10.4379
10.5303
10.617
10.6967
10.768
10.8289
10.8767
10.9072
10.9149
10.8935
10.8375
10.7456
10.6239
10.4867
10.3524
10.2371
10.1487
10.0875
10.0486
10.0256
10.0128
10.0061
10.0028
10.0012
10.0005
10.0002
10.0001
10
10
10
10
10
10
10
10
10
10
10
10
10
10
10
10
10
9.62995
9.53784
9.45267
9.3759
9.30921
9.25475
9.21388
9.18791
9.17896
9.18861
9.2172
9.26281
9.32104
9.38576
9.45031
9.50056
9.54609
9.58328
9.61153
9.63107
9.64479
9.65231
9.65703
9.65845
9.659
9.65915
9.65895
9.65805
9.65412
9.64781
9.63588
9.61883
9.59389
9.5609
9.52045
9.47608
9.41815
9.3606
9.30991
9.27203
9.2512
9.24919
9.26557
9.29862
9.34611
9.4058
9.47608
9.55583
9.64315
9.73605
9.83324
9.93353
10.0357
10.1385
10.2407
10.3409
10.4379
10.5303
10.617
10.6967
10.768
10.8289
10.8767
10.9072
10.9149
10.8935
10.8375
10.7456
10.6239
10.4867
10.3524
10.2371
10.1487
10.0875
10.0486
10.0256
10.0128
10.0061
10.0028
10.0012
10.0005
10.0002
10.0001
10
10
10
10
10
10
10
10
10
10
10
10
10
10
10
10
10
9.63449
9.54198
9.45623
9.37873
9.31119
9.25576
9.21375
9.18648
9.17623
9.18465
9.21219
9.25705
9.31496
9.37979
9.44479
9.49612
9.54248
9.58034
9.60917
9.62926
9.64337
9.65132
9.65637
9.6581
9.65881
9.65895
9.65858
9.65735
9.65306
9.64628
9.63389
9.61624
9.59065
9.55691
9.51554
9.47002
9.41158
9.35385
9.30345
9.26631
9.24655
9.24581
9.26351
9.29791
9.34669
9.40757
9.47893
9.55965
9.64781
9.7414
9.83911
9.93974
10.0421
10.1449
10.2468
10.3467
10.4432
10.535
10.621
10.7
10.7706
10.8308
10.8778
10.9074
10.9141
10.8916
10.8343
10.7413
10.619
10.4816
10.3479
10.2335
10.1461
10.0859
10.0476
10.025
10.0125
10.0059
10.0027
10.0012
10.0005
10.0002
10.0001
10
10
10
10
10
10
10
10
10
10
10
10
10
10
10
10
10
9.64392
9.55066
9.46381
9.38488
9.31563
9.25823
9.21393
9.18412
9.17124
9.17711
9.20239
9.2456
9.30272
9.36766
9.43347
9.48687
9.53489
9.5741
9.60409
9.62525
9.64015
9.64894
9.65462
9.65691
9.65792
9.65805
9.65735
9.6555
9.65053
9.64283
9.62956
9.61069
9.58379
9.54855
9.50536
9.45763
9.39823
9.34031
9.29063
9.2551
9.2376
9.23946
9.25988
9.29696
9.34829
9.41155
9.48504
9.56761
9.65742
9.75231
9.85099
9.95223
10.0548
10.1575
10.259
10.3581
10.4536
10.5442
10.6289
10.7066
10.7757
10.8345
10.8799
10.9078
10.9125
10.8876
10.8279
10.7327
10.609
10.4716
10.339
10.2264
10.1411
10.0826
10.0456
10.0239
10.0119
10.0056
10.0025
10.0011
10.0004
10.0002
10.0001
10
10
10
10
10
10
10
10
10
10
10
10
10
10
10
10
10
9.65904
9.56491
9.47665
9.39571
9.32418
9.26393
9.21615
9.18265
9.16583
9.16774
9.1894
9.22984
9.28536
9.35002
9.4167
9.47281
9.52303
9.56401
9.59548
9.61797
9.63375
9.64348
9.64979
9.6527
9.65401
9.65412
9.65306
9.65053
9.64485
9.63609
9.62179
9.60141
9.57281
9.53556
9.48993
9.43927
9.37883
9.32102
9.27282
9.24002
9.22611
9.23196
9.25643
9.29738
9.35235
9.41905
9.49548
9.58051
9.67246
9.76905
9.8689
9.97078
10.0735
10.1758
10.2765
10.3744
10.4683
10.5572
10.64
10.7157
10.7829
10.8396
10.8828
10.9081
10.9098
10.8813
10.818
10.7196
10.594
10.4566
10.3258
10.2161
10.1339
10.0779
10.0428
10.0223
10.011
10.0052
10.0023
10.001