<?xml version="1.0"?>
<VTKFile type="StructuredGrid">
<StructuredGrid WholeExtent="0 100 0 100 0 0">
<Piece Extent="0 100 0 100 0 0">
<Points>
<DataArray NumberOfComponents="3" type="Float32" format="ascii">
0 0 0
10 0 0
20 0 0
30 0 0
40 0 0
50 0 0
60 0 0
70 0 0
80 0 0
90 0 0
100 0 0
110 0 0
120 0 0
130 0 0
140 0 0
150 0 0
160 0 0
170 0 0
180 0 0
190 0 0
200 0 0
210 0 0
220 0 0
230 0 0
240 0 0
250 0 0
260 0 0
270 0 0
280 0 0
290 0 0
300 0 0
310 0 0
320 0 0
330 0 0
340 0 0
350 0 0
360 0 0
370 0 0
380 0 0
390 0 0
400 0 0
410 0 0
420 0 0
430 0 0
440 0 0
450 0 0
460 0 0
470 0 0
480 0 0
490 0 0
500 0 0
510 0 0
520 0 0
530 0 0
540 0 0
550 0 0
560 0 0
570 0 0
580 0 0
590 0 0
600 0 0
610 0 0
620 0 0
630 0 0
640 0 0
650 0 0
660 0 0
670 0 0
680 0 0
690 0 0
700 0 0
710 0 0
720 0 0
730 0 0
740 0 0
750 0 0
760 0 0
770 0 0
780 0 0
790 0 0
800 0 0
810 0 0
820 0 0
830 0 0
840 0 0
850 0 0
860 0 0
870 0 0
880 0 0
890 0 0
900 0 0
910 0 0
920 0 0
930 0 0
940 0 0
950 0 0
960 0 0
970 0 0
980 0 0
990 0 0
1000 0 0
0 10 0
10 10 0
20 10 0
30 10 0
40 10 0
50 10 0
60 10 0
70 10 0
80 10 0
90 10 0
100 10 0
110 10 0
120 10 0
130 10 0
140 10 0
150 10 0
160 10 0
170 10 0
180 10 0
190 10 0
200 10 0
210 10 0
220 10 0
230 10 0
240 10 0
250 10 0
260 10 0
270 10 0
280 10 0
290 10 0
300 10 0
310 10 0
320 10 0
330 10 0
340 10 0
350 10 0
360 10 0
370 10 0
380 10 0
390 10 0
400 10 0
410 10 0
420 10 0
430 10 0
440 10 0
450 10 0
460 10 0
470 10 0
480 10 0
490 10 0
500 10 0
510 10 0
520 10 0
530 10 0
540 10 0
550 10 0
560 10 0
570 10 0
580 10 0
590 10 0
600 10 0
610 10 0
620 10 0
630 10 0
640 10 0
650 10 0
660 10 0
670 10 0
680 10 0
690 10 0
700 10 0
710 10 0
720 10 0
730 10 0
740 10 0
750 10 0
760 10 0
770 10 0
780 10 0
790 10 0
800 10 0
810 10 0
820 10 0
830 10 0
840 10 0
850 10 0
860 10 0
870 10 0
880 10 0
890 10 0
900 10 0
910 10 0
920 10 0
930 10 0
940 10 0
950 10 0
960 10 0
970 10 0
980 10 0
990 10 0
1000 10 0
0 20 0
10 20 0
20 20 0
30 20 0
40 20 0
50 20 0
60 20 0
70 20 0
80 20 0
90 20 0
100 20 0
110 20 0
120 20 0
130 20 0
140 20 0
150 20 0
160 20 0
170 20 0
180 20 0
190 20 0
200 20 0
210 20 0
220 20 0
230 20 0
240 20 0
250 20 0
260 20 0
270 20 0
280 20 0
290 20 0
300 20 0
310 20 0
320 20 0
330 20 0
340 20 0
350 20 0
360 20 0
370 20 0
380 20 0
390 20 0
400 20 0
410 20 0
420 20 0
430 20 0
440 20 0
450 20 0
460 20 0
470 20 0
480 20 0
490 20 0
500 20 0
510 20 0
520 20 0
530 20 0
540 20 0
550 20 0
560 20 0
570 20 0
580 20 0
590 20 0
600 20 0
610 20 0
620 20 0
630 20 0
640 20 0
650 20 0
660 20 0
670 20 0
680 20 0
690 20 0
700 20 0
710 20 0
720 20 0
730 20 0
740 20 0
750 20 0
760 20 0
770 20 0
780 20 0
790 20 0
800 20 0
810 20 0
820 20 0
830 20 0
840 20 0
850 20 0
860 20 0
870 20 0
880 20 0
890 20 0
900 20 0
910 20 0
920 20 0
930 20 0
940 20 0
950 20 0
960 20 0
970 20 0
980 20 0
990 20 0
1000 20 0
0 30 0
10 30 0
20 30 0
30 30 0
40 30 0
50 30 0
60 30 0
70 30 0
80 30 0
90 30 0
100 30 0
110 30 0
120 30 0
130 30 0
140 30 0
150 30 0
160 30 0
170 30 0
180 30 0
190 30 0
200 30 0
210 30 0
220 30 0
230 30 0
240 30 0
250 30 0
260 30 0
270 30 0
280 30 0
290 30 0
300 30 0
310 30 0
320 30 0
330 30 0
340 30 0
350 30 0
360 30 0
370 30 0
380 30 0
390 30 0
400 30 0
410 30 0
420 30 0
430 30 0
440 30 0
450 30 0
460 30 0
470 30 0
480 30 0
490 30 0
500 30 0
510 30 0
520 30 0
530 30 0
540 30 0
550 30 0
560 30 0
570 30 0
580 30 0
590 30 0
600 30 0
610 30 0
620 30 0
630 30 0
640 30 0
650 30 0
660 30 0
670 30 0
680 30 0
690 30 0
700 30 0
710 30 0
720 30 0
730 30 0
740 30 0
750 30 0
760 30 0
770 30 0
780 30 0
790 30 0
800 30 0
810 30 0
820 30 0
830 30 0
840 30 0
850 30 0
860 30 0
870 30 0
880 30 0
890 30 0
900 30 0
910 30 0
920 30 0
930 30 0
940 30 0
950 30 0
960 30 0
970 30 0
980 30 0
990 30 0
1000 30 0
0 40 0
10 40 0
20 40 0
30 40 0
40 40 0
50 40 0
60 40 0
70 40 0
80 40 0
90 40 0
100 40 0
110 40 0
120 40 0
130 40 0
140 40 0
150 40 0
160 40 0
170 40 0
180 40 0
190 40 0
200 40 0
210 40 0
220 40 0
230 40 0
240 40 0
250 40 0
260 40 0
270 40 0
280 40 0
290 40 0
300 40 0
310 40 0
320 40 0
330 40 0
340 40 0
350 40 0
360 40 0
370 40 0
380 40 0
390 40 0
400 40 0
410 40 0
420 40 0
430 40 0
440 40 0
450 40 0
460 40 0
470 40 0
480 40 0
490 40 0
500 40 0
510 40 0
520 40 0
530 40 0
540 40 0
550 40 0
560 40 0
570 40 0
580 40 0
590 40 0
600 40 0
610 40 0
620 40 0
630 40 0
640 40 0
650 40 0
660 40 0
670 40 0
680 40 0
690 40 0
700 40 0
710 40 0
720 40 0
730 40 0
740 40 0
750 40 0
760 40 0
770 40 0
780 40 0
790 40 0
800 40 0
810 40 0
820 40 0
830 40 0
840 40 0
850 40 0
860 40 0
870 40 0
880 40 0
890 40 0
900 40 0
910 40 0
920 40 0
930 40 0
940 40 0
950 40 0
960 40 0
970 40 0
980 40 0
990 40 0
1000 40 0
0 50 0
10 50 0
20 50 0
30 50 0
40 50 0
50 50 0
60 50 0
70 50 0
80 50 0
90 50 0
100 50 0
110 50 0
120 50 0
130 50 0
140 50 0
150 50 0
160 50 0
170 50 0
180 50 0
190 50 0
200 50 0
210 50 0
220 50 0
230 50 0
240 50 0
250 50 0
260 50 0
270 50 0
280 50 0
290 50 0
300 50 0
310 50 0
320 50 0
330 50 0
340 50 0
350 50 0
360 50 0
370 50 0
380 50 0
390 50 0
400 50 0
410 50 0
420 50 0
430 50 0
440 50 0
450 50 0
460 50 0
470 50 0
480 50 0
490 50 0
500 50 0
510 50 0
520 50 0
530 50 0
540 50 0
550 50 0
560 50 0
570 50 0
580 50 0
590 50 0
600 50 0
610 50 0
620 50 0
630 50 0
640 50 0
650 50 0
660 50 0
670 50 0
680 50 0
690 50 0
700 50 0
710 50 0
720 50 0
730 50 0
740 50 0
750 50 0
760 50 0
770 50 0
780 50 0
790 50 0
800 50 0
810 50 0
820 50 0
830 50 0
840 50 0
850 50 0
860 50 0
870 50 0
880 50 0
890 50 0
900 50 0
910 50 0
920 50 0
930 50 0
940 50 0
950 50 0
960 50 0
970 50 0
980 50 0
990 50 0
1000 50 0
0 60 0
10 60 0
20 60 0
30 60 0
40 60 0
50 60 0
60 60 0
70 60 0
80 60 0
90 60 0
100 60 0
110 60 0
120 60 0
130 60 0
140 60 0
150 60 0
160 60 0
170 60 0
180 60 0
190 60 0
200 60 0
210 60 0
220 60 0
230 60 0
240 60 0
250 60 0
260 60 0
270 60 0
280 60 0
290 60 0
300 60 0
310 60 0
320 60 0
330 60 0
340 60 0
350 60 0
360 60 0
370 60 0
380 60 0
390 60 0
400 60 0
410 60 0
420 60 0
430 60 0
440 60 0
450 60 0
460 60 0
470 60 0
480 60 0
490 60 0
500 60 0
510 60 0
520 60 0
530 60 0
540 60 0
550 60 0
560 60 0
570 60 0
580 60 0
590 60 0
600 60 0
610 60 0
620 60 0
630 60 0
640 60 0
650 60 0
660 60 0
670 60 0
680 60 0
690 60 0
700 60 0
710 60 0
720 60 0
730 60 0
740 60 0
750 60 0
760 60 0
770 60 0
780 60 0
790 60 0
800 60 0
810 60 0
820 60 0
830 60 0
840 60 0
850 60 0
860 60 0
870 60 0
880 60 0
890 60 0
900 60 0
910 60 0
920 60 0
930 60 0
940 60 0
950 60 0
960 60 0
970 60 0
980 60 0
990 60 0
1000 60 0
0 70 0
10 70 0
20 70 0
30 70 0
40 70 0
50 70 0
60 70 0
70 70 0
80 70 0
90 70 0
100 70 0
110 70 0
120 70 0
130 70 0
140 70 0
150 70 0
160 70 0
170 70 0
180 70 0
190 70 0
200 70 0
210 70 0
220 70 0
230 70 0
240 70 0
250 70 0
260 70 0
270 70 0
280 70 0
290 70 0
300 70 0
310 70 0
320 70 0
330 70 0
340 70 0
350 70 0
360 70 0
370 70 0
380 70 0
390 70 0
400 70 0
410 70 0
420 70 0
430 70 0
440 70 0
450 70 0
460 70 0
470 70 0
480 70 0
490 70 0
500 70 0
510 70 0
520 70 0
530 70 0
540 70 0
550 70 0
560 70 0
570 70 0
580 70 0
590 70 0
600 70 0
610 70 0
620 70 0
630 70 0
640 70 0
650 70 0
660 70 0
670 70 0
680 70 0
690 70 0
700 70 0
710 70 0
720 70 0
730 70 0
740 70 0
750 70 0
760 70 0
770 70 0
780 70 0
790 70 0
800 70 0
810 70 0
820 70 0
830 70 0
840 70 0
850 70 0
860 70 0
870 70 0
880 70 0
890 70 0
900 70 0
910 70 0
920 70 0
930 70 0
940 70 0
950 70 0
960 70 0
970 70 0
980 70 0
990 70 0
1000 70 0
0 80 0
10 80 0
20 80 0
30 80 0
40 80 0
50 80 0
60 80 0
70 80 0
80 80 0
90 80 0
100 80 0
110 80 0
120 80 0
130 80 0
140 80 0
150 80 0
160 80 0
170 80 0
180 80 0
190 80 0
200 80 0
210 80 0
220 80 0
230 80 0
240 80 0
250 80 0
260 80 0
270 80 0
280 80 0
290 80 0
300 80 0
310 80 0
320 80 0
330 80 0
340 80 0
350 80 0
360 80 0
370 80 0
380 80 0
390 80 0
400 80 0
410 80 0
420 80 0
430 80 0
440 80 0
450 80 0
460 80 0
470 80 0
480 80 0
490 80 0
500 80 0
510 80 0
520 80 0
530 80 0
540 80 0
550 80 0
560 80 0
570 80 0
580 80 0
590 80 0
600 80 0
610 80 0
620 80 0
630 80 0
640 80 0
650 80 0
660 80 0
670 80 0
680 80 0
690 80 0
700 80 0
710 80 0
720 80 0
730 80 0
740 80 0
750 80 0
760 80 0
770 80 0
780 80 0
790 80 0
800 80 0
810 80 0
820 80 0
830 80 0
840 80 0
850 80 0
860 80 0
870 80 0
880 80 0
890 80 0
900 80 0
910 80 0
920 80 0
930 80 0
940 80 0
950 80 0
960 80 0
970 80 0
980 80 0
990 80 0
1000 80 0
0 90 0
10 90 0
20 90 0
30 90 0
40 90 0
50 90 0
60 90 0
70 90 0
80 90 0
90 90 0
100 90 0
110 90 0
120 90 0
130 90 0
140 90 0
150 90 0
160 90 0
170 90 0
180 90 0
190 90 0
200 90 0
210 90 0
220 90 0
230 90 0
240 90 0
250 90 0
260 90 0
270 90 0
280 90 0
290 90 0
300 90 0
310 90 0
320 90 0
330 90 0
340 90 0
350 90 0
360 90 0
370 90 0
380 90 0
390 90 0
400 90 0
410 90 0
420 90 0
430 90 0
440 90 0
450 90 0
460 90 0
470 90 0
480 90 0
490 90 0
500 90 0
510 90 0
520 90 0
530 90 0
540 90 0
550 90 0
560 90 0
570 90 0
580 90 0
590 90 0
600 90 0
610 90 0
620 90 0
630 90 0
640 90 0
650 90 0
660 90 0
670 90 0
680 90 0
690 90 0
700 90 0
710 90 0
720 90 0
730 90 0
740 90 0
750 90 0
760 90 0
770 90 0
780 90 0
790 90 0
800 90 0
810 90 0
820 90 0
830 90 0
840 90 0
850 90 0
860 90 0
870 90 0
880 90 0
890 90 0
900 90 0
910 90 0
920 90 0
930 90 0
940 90 0
950 90 0
960 90 0
970 90 0
980 90 0
990 90 0
1000 90 0
0 100 0
10 100 0
20 100 0
30 100 0
40 100 0
50 100 0
60 100 0
70 100 0
80 100 0
90 100 0
100 100 0
110 100 0
120 100 0
130 100 0
140 100 0
150 100 0
160 100 0
170 100 0
180 100 0
190 100 0
200 100 0
210 100 0
220 100 0
230 100 0
240 100 0
250 100 0
260 100 0
270 100 0
280 100 0
290 100 0
300 100 0
310 100 0
320 100 0
330 100 0
340 100 0
350 100 0
360 100 0
370 100 0
380 100 0
390 100 0
400 100 0
410 100 0
420 100 0
430 100 0
440 100 0
450 100 0
460 100 0
470 100 0
480 100 0
490 100 0
500 100 0
510 100 0
520 100 0
530 100 0
540 100 0
550 100 0
560 100 0
570 100 0
580 100 0
590 100 0
600 100 0
610 100 0
620 100 0
630 100 0
640 100 0
650 100 0
660 100 0
670 100 0
680 100 0
690 100 0
700 100 0
710 100 0
720 100 0
730 100 0
740 100 0
750 100 0
760 100 0
770 100 0
780 100 0
790 100 0
800 100 0
810 100 0
820 100 0
830 100 0
840 100 0
850 100 0
860 100 0
870 100 0
880 100 0
890 100 0
900 100 0
[...]
<CellData>
<DataArray Name="h" type="Float32" format="ascii">
11.0047
11.0837
11.1249
11.1346
11.1216
11.0941
11.0582
11.0176
10.9746
10.9299
10.884
10.837
10.7889
10.7399
10.6903
10.641
10.5919
10.5434
10.4959
10.4505
10.4088
10.3722
10.3425
10.3216
10.3108
10.3108
10.3216
10.3425
10.3722
10.4088
10.4505
10.4959
10.5434
10.5919
10.641
10.6903
10.7399
10.7888
10.8368
10.8836
10.929
10.9724
11.013
11.0489
11.0769
11.0919
11.087
11.054
10.9853
10.8777
10.736
10.5749
10.4152
10.2764
10.1697
10.0963
10.0506
10.0247
10.0112
10.0047
10.0018
10.0006
10.0002
10.0001
10
10
10
10
10
10
10
10
10
10
10
10
10
10
10
10
10
10
10
10
10
10
10
10
10
10
10
10
10
10
10
10
10
10
10
10
11.0837
11.1415
11.1612
11.1516
11.1228
11.0829
11.0375
10.9897
10.9408
10.8911
10.8405
10.7888
10.736
10.682
10.6269
10.5722
10.5172
10.4625
10.4085
10.3567
10.309
10.2673
10.2334
10.2097
10.1975
10.1975
10.2097
10.2334
10.2673
10.309
10.3567
10.4085
10.4625
10.5172
10.5722
10.6269
10.6819
10.7359
10.7886
10.8399
10.8896
10.9375
10.9829
11.0247
11.0603
11.0859
11.0957
11.0821
11.0374
10.9556
10.8361
10.687
10.525
10.3707
10.2413
10.1449
10.0805
10.0414
10.0198
10.0088
10.0036
10.0014
10.0005
10.0002
10
10
10
10
10
10
10
10
10
10
10
10
10
10
10
10
10
10
10
10
10
10
10
10
10
10
10
10
10
10
10
10
10
10
10
10
11.1249
11.1612
11.164
11.1422
11.1044
11.0577
11.0068
10.9543
10.901
10.847
10.792
10.7358
10.678
10.6186
10.5576
10.4969
10.4355
10.374
10.3131
10.2548
10.2013
10.1548
10.1173
10.0913
10.0779
10.0779
10.0913
10.1173
10.1548
10.2013
10.2548
10.3131
10.374
10.4355
10.4969
10.5576
10.6186
10.6778
10.7353
10.7909
10.8445
10.8958
10.9444
10.9892
11.0287
11.0599
11.0788
11.0798
11.0566
11.0027
10.9138
10.7909
10.6423
10.4846
10.3375
10.2164
10.1279
10.0699
10.0354
10.0166
10.0072
10.0029
10.0011
10.0004
10.0001
10
10
10
10
10
10
10
10
10
10
10
10
10
10
10
10
10
10
10
10
10
10
10
10
10
10
10
10
10
10
10
10
10
10
10
11.1346
11.1516
11.1422
11.1133
11.0714
11.0217
10.968
10.9123
10.8555
10.7977
10.7384
10.6775
10.6145
10.5493
10.4819
10.4147
10.3463
10.2777
10.21
10.1456
10.0869
10.0365
9.99607
9.96828
9.954
9.954
9.96828
9.99607
10.0365
10.0869
10.1456
10.21
10.2777
10.3463
10.4147
10.4819
10.5492
10.6141
10.6766
10.7366
10.7937
10.8479
10.8985
10.945
10.986
11.0201
11.0448
11.0567
11.0514
11.0234
10.9666
10.8762
10.7529
10.6054
10.4508
10.309
10.1946
10.113
10.0606
10.0301
10.0139
10.0059
10.0023
10.0009
10.0003
10.0001
10
10
10
10
10
10
10
10
10
10
10
10
10
10
10
10
10
10
10
10
10
10
10
10
10
10
10
10
10
10
10
10
10
10
11.1216
11.1228
11.1044
11.0714
11.0278
10.9771
10.9219
10.864
10.8042
10.7426
10.679
10.6131
10.5445
10.4731
10.3988
10.3248
10.2494
10.1739
10.0998
10.0302
9.96739
9.91418
9.87175
9.84295
9.82824
9.82824
9.84295
9.87175
9.91418
9.96739
10.0302
10.0998
10.1739
10.2494
10.3248
10.3987
10.4728
10.5439
10.6118
10.6762
10.7369
10.7937
10.8461
10.8936
10.9358
10.9719
11.0011
11.0217
11.0311
11.0247
10.9963
10.9384
10.8459
10.7196
10.5703
10.417
10.2799
10.1725
10.0979
10.0514
10.025
10.0113
10.0047
10.0018
10.0007
10.0002
10.0001
10
10
10
10
10
10
10
10
10
10
10
10
10
10
10
10
10
10
10
10
10
10
10
10
10
10
10
10
10
10
10
10
10
11.0941
11.0829
11.0577
11.0217
10.9771
10.9257
10.8694
10.8094
10.7466
10.6812
10.613
10.5417
10.4671
10.389
10.3077
10.2268
10.1446
10.0628
9.98348
9.90994
9.84432
9.78965
9.74648
9.71757
9.70289
9.70289
9.71757
9.74648
9.78965
9.84432
9.90994
9.98348
10.0628
10.1446
10.2268
10.3076
10.3886
10.4661
10.5397
10.6088
10.6734
10.733
10.7875
10.8367
10.8807
10.9195
10.9532
10.9814
11.0026
11.0132
11.0075
10.9778
10.9159
10.8171
10.6844
10.5316
10.3797
10.2486
10.1494
10.0828
10.0424
10.0201
10.0089
10.0036
10.0014
10.0005
10.0002
10
10
10
10
10
10
10
10
10
10
10
10
10
10
10
10
10
10
10
10
10
10
10
10
10
10
10
10
10
10
10
10
10
11.0582
11.0375
11.0068
10.968
10.9219
10.8694
10.8114
10.7489
10.6827
10.6129
10.5396
10.4624
10.3814
10.2964
10.2081
10.1208
10.0324
9.94533
9.86204
9.78616
9.71939
9.66483
9.62228
9.59427
9.58017
9.58017
9.59427
9.62228
9.66483
9.71939
9.78616
9.86204
9.94532
10.0324
10.1207
10.2079
10.2958
10.38
10.4596
10.534
10.6029
10.6662
10.7238
10.7759
10.823
10.8657
10.9046
10.9398
10.9703
10.9937
11.0052
10.9978
10.963
10.8927
10.7839
10.6431
10.4873
10.3386
10.2155
10.126
10.068
10.0339
10.0157
10.0068
10.0027
10.001
10.0003
10.0001
10
10
10
10
10
10
10
10
10
10
10
10
10
10
10
10
10
10
10
10
10
10
10
10
10
10
10
10
10
10
10
10
11.0176
10.9897
10.9543
10.9123
10.864
10.8094
10.7489
10.6832
10.6126
10.5377
10.4586
10.375
10.2871
10.1952
10.1002
10.007
9.91355
9.82247
9.73685
9.66042
9.59428
9.54153
9.50108
9.47504
9.46209
9.46209
9.47504
9.50108
9.54153
9.59428
9.66042
9.73685
9.82245
9.91349
10.0069
10.0998
10.1943
10.2852
10.3711
10.4515
10.5257
10.5938
10.6559
10.7125
10.7643
10.8121
10.8566
10.8983
10.9365
10.9694
10.9935
11.003
10.9901
10.9461
10.8639
10.7432
10.5944
10.4373
10.2947
10.1819
10.1032
10.0541
10.0263
10.0119
10.005
10.0019
10.0007
10.0002
10.0001
10
10
10
10
10
10
10
10
10
10
10
10
10
10
10
10
10
10
10
10
10
10
10
10
10
10
10
10
10
10
10
10.9746
10.9408
10.901
10.8555
10.8042
10.7466
10.6827
10.6126
10.537
10.456
10.3702
10.2796
10.1846
10.0859
9.98473
9.88659
9.78921
9.69566
9.60945
9.53436
9.47082
9.42167
9.38486
9.36192
9.35071
9.35071
9.36192
9.38486
9.42167
9.47082
9.53435
9.60944
9.69562
9.78911
9.88635
9.98417
10.0846
10.182
10.2748
10.3618
10.4425
10.5167
10.5848
10.6473
10.705
10.7588
10.8094
10.8572
10.9018
10.942
10.9754
10.9975
11.0018
10.98
10.9234
10.8268
10.6936
10.5382
10.3831
10.2495
10.149
10.082
10.0418
10.0197
10.0087
10.0035
10.0013
10.0005
10.0002
10
10
10
10
10
10
10
10
10
10
10
10
10
10
10
10
10
10
10
10
10
10
10
10
10
10
10
10
10
10
10
10.9299
10.8911
10.847
10.7977
10.7426
10.6812
10.6129
10.5377
10.456
10.3683
10.2751
10.177
10.0748
9.96962
9.86303
9.76092
9.66102
9.56655
9.48186
9.41025
9.35143
9.30776
9.27619
9.25746
9.24855
9.24855
9.25746
9.27619
9.30776
9.35142
9.41025
9.48184
9.5665
9.66088
9.76058
9.86226
9.96799
10.0717
10.1713
10.2657
10.3538
10.4355
10.5109
10.5805
10.6451
10.7054
10.7622
10.8158
10.8662
10.9125
10.9531
10.9848
11.0023
10.9984
10.9644
10.8923
10.7799
10.6348
10.4758
10.3265
10.205
10.1183
10.063
10.0311
10.0143
10.0061
10.0024
10.0009
10.0003
10.0001
10
10
10
10
10
10
10
10
10
10
10
10
10
10
10
10
10
10
10
10
10
10
10
10
10
10
10
10
10
10
10.884
10.8405
10.792
10.7384
10.679
10.613
10.5396
10.4586
10.3702
10.2751
10.1742
10.0686
9.95937
9.84813
9.73684
9.63207
9.53144
9.43894
9.35819
9.2923
9.24039
9.20403
9.17919
9.16558
9.15945
9.15945
9.16558
9.17919
9.20403
9.24038
9.29229
9.35816
9.43886
9.53125
9.63162
9.73585
9.84616
9.95571
10.0623
10.1643
10.2606
10.3506
10.4342
10.5118
10.5839
10.6511
10.7142
10.7735
10.8293
10.8811
10.9278
10.967
10.9949
11.0053
10.9902
10.9408
10.8509
10.7221
10.5674
10.4091
10.2697
10.163
10.0907
10.0467
10.0223
10.01
10.0041
10.0016
10.0006
10.0002
10.0001
10
10
10
10
10
10
10
10
10
10
10
10
10
10
10
10
10
10
10
10
10
10
10
10
10
10
10
10
10
10.837
10.7888
10.7358
10.6775
10.6131
10.5417
10.4624
10.375
10.2796
10.177
10.0686
9.95568
9.83999
9.72351
9.60956
9.5044
9.40514
9.31603
9.24125
9.18313
9.13999
9.11255
9.09567
9.088
9.08505
9.08505
9.088
9.09567
9.11255
9.13999
9.18311
9.24121
9.31592
9.40489
9.50383
9.60838
9.72125
9.836
9.94914
10.0587
10.1633
10.2621
10.3545
10.4406
10.5205
10.595
10.6645
10.7297
10.7909
10.8479
10.9001
10.9458
10.9821
11.004
11.0044
10.9747
10.9067
10.7972
10.6532
10.493
10.3406
10.2152
10.1249
10.067
10.0333
10.0154
10.0067
10.0027
10.001
10.0003
10.0001
10
10
10
10
10
10
10
10
10
10
10
10
10
10
10
10
10
10
10
10
10
10
10
10
10
10
10
10
10
10.7889
10.736
10.678
10.6145
10.5445
10.4671
10.3814
10.2871
10.1846
10.0748
9.95937
9.83999
9.71876
9.59953
9.48513
9.38082
9.2845
9.20042
9.13322
9.08469
9.0521
9.03512
9.02737
9.0264
9.02698
9.02698
9.0264
9.02737
9.03511
9.0521
9.08467
9.13317
9.20029
9.28419
9.38015
9.48382
9.59712
9.71469
9.83366
9.95029
10.0629
10.1702
10.2715
10.3662
10.4545
10.5365
10.6128
10.6841
10.7508
10.8131
10.8706
10.9221
10.9656
10.9968
11.01
10.997
10.9489
10.8595
10.7303
10.5744
10.4144
10.2734
10.1653
10.0921
10.0475
10.0228
10.0102
10.0043
10.0017
10.0006
10.0002
10.0001
10
10
10
10
10
10
10
10
10
10
10
10
10
10
10
10
10
10
10
10
10
10
10
10
10
10
10
10
10.7399
10.682
10.6186
10.5493
10.4731
10.389
10.2964
10.1952
10.0859
9.96962
9.84813
9.72351
9.59953
9.47949
9.36549
9.26359
9.17199
9.09551
9.03821
9.00145
8.98134
8.97631
8.97876
8.98502
8.98935
8.98935
8.98502
8.97876
8.97631
8.98133
9.00142
9.03815
9.09535
9.17164
9.26286
9.36412
9.47711
9.5957
9.71785
9.84048
9.96021
10.0755
10.1852
10.2886
10.3852
10.4751
10.5587
10.6365
10.7091
10.7767
10.8395
10.8966
10.9464
10.9856
11.0094
11.0103
10.9797
10.9095
10.7971
10.6502
10.4881
10.3353
10.2107
10.1218
10.0651
10.0323
10.015
10.0065
10.0026
10.001
10.0003
10.0001
10
10
10
10
10
10
10
10
10
10
10
10
10
10
10
10
10
10
10
10
10
10
10
10
10
10
10
10
10.6903
10.6269
10.5576
10.4819
10.3988
10.3077
10.2081
10.1002
9.98473
9.86303
9.73684
9.60956
9.48513
9.36549
9.25417
9.15654
9.07206
9.00537
8.96049
8.93775
8.93206
8.94027
8.95361
8.96739
8.97554
8.97554
8.96739
8.95361
8.94026
8.93205
8.93772
8.96041
9.00519
9.07169
9.15582
9.25287
9.36334
9.48187
9.60504
9.73118
9.85679
9.97894
10.0963
10.2079
10.3128
10.4109
10.5021
10.5869
10.6658
10.7392
10.8073
10.8698
10.9254
10.9717
11.0044
11.0171
11.0015
10.9488
10.8535
10.7185
10.5589
10.3984
10.2597
10.1553
10.0857
10.0439
10.021
10.0093
10.0039
10.0015
10.0005
10.0002
10.0001
10
10
10
10
10
10
10
10
10
10
10
10
10
10
10
10
10
10
10
10
10
10
10
10
10
10
10
10.641
10.5722
10.4969
10.4147
10.3248
10.2268
10.1208
10.007
9.88659
9.76092
9.63207
9.5044
9.38082
9.26359
9.15654
9.065
8.98931
8.93417
8.90303
8.89503
8.90378
8.92444
8.9475
8.96755
8.97875
8.97875
8.96755
8.9475
8.92444
8.90377
8.895
8.90295
8.93399
8.98897
9.06436
9.15545
9.26189
9.37844
9.50142
9.6289
9.75834
9.8858
10.0095
10.1282
10.2408
10.3467
10.4455
10.5375
10.6228
10.7021
10.7756
10.8432
10.9042
10.9565
10.9967
11.0193
11.0165
10.9792
10.9002
10.7786
10.6249
10.4606
10.3105
10.1918
10.1091
10.0575
10.0282
10.013
10.0056
10.0022
10.0008
10.0003
10.0001
10
10
10
10
10
10
10
10
10
10
10
10
10
10
10
10
10
10
10
10
10
10
10
10
10
10
10
10.5919
10.5172
10.4355
10.3463
10.2494
10.1446
10.0324
9.91355
9.78921
9.66102
9.53144
9.40514
9.2845
9.17199
9.07206
8.98931
8.92567
8.88565
8.87183
8.88174
8.90738
8.94194
8.97531
9.00165
9.0158
9.0158
9.00165
8.97531
8.94194
8.90736
8.88171
8.87176
8.88551
8.92538
8.98882
9.0713
9.17093
9.28325
9.40402
9.53109
9.66241
9.79364
9.92256
10.0476
10.1674
10.2809
10.3876
10.487
10.5794
10.6651
10.7442
10.8171
10.8831
10.9409
10.9876
11.0185
11.0264
11.0026
10.9385
10.8304
10.6846
10.5199
10.3613
10.2298
10.1344
10.0727
10.0366
10.0172
10.0076
10.0031
10.0012
10.0004
10.0001
10
10
10
10
10
10
10
10
10
10
10
10
10
10
10
10
10
10
10
10
10
10
10
10
10
10
10
10.5434
10.4625
10.374
10.2777
10.1739
10.0628
9.94533
9.82247
9.69565
9.56655
9.43894
9.31603
9.20043
9.09551
9.00537
8.93417
8.88565
8.86372
8.86959
8.89867
8.94123
8.98854
9.03053
9.06156
9.07773
9.07773
9.06156
9.03053
8.98853
8.94122
8.89865
8.86953
8.86361
8.88548
8.9339
9.00504
9.09525
9.2005
9.31697
9.44157
9.57202
9.70535
9.83791
9.96803
10.0941
10.2148
10.3291
10.4363
10.5361
10.6285
10.7138
10.792
10.863
10.9258
10.9781
11.0159
11.0328
11.0204
10.9695
10.8743
10.7376
10.5748
10.4104
10.268
10.1607
10.089
10.0458
10.022
10.0099
10.0042
10.0017
10.0006
10.0002
10.0001
10
10
10
10
10
10
10
10
10
10
10
10
10
10
10
10
10
10
10
10
10
10
10
10
10
10
10.4959
10.4085
10.3131
10.21
10.0998
9.98348
9.86204
9.73685
9.60945
9.48186
9.35819
9.24125
9.13322
9.03821
8.96049
8.90303
8.87183
8.86959
8.89545
8.94238
8.99914
9.05563
9.10281
9.13585
9.15262
9.15262
9.13585
9.10281
9.05562
8.99914
8.94236
8.89543
8.86955
8.87179
8.90304
8.96068
9.03883
9.13472
9.24433
9.36385
9.49135
9.62423
9.75844
9.89187
10.0228
10.1496
10.2708
10.3854
10.4927
10.5922
10.6839
10.7678
10.8438
10.9113
10.9686
11.0122
11.0366
11.0337
10.9942
10.9108
10.7834
10.6242
10.4562
10.305
10.1869
10.1057
10.0555
10.0272
10.0125
10.0054
10.0022
10.0008
10.0003
10.0001
10
10
10
10
10
10
10
10
10
10
10
10
10
10
10
10
10
10
10
10
10
10
10
10
10
10
10.4505
10.3567
10.2548
10.1456
10.0302
9.90994
9.78616
9.66042
9.53436
9.41025
9.2923
9.18313
9.08469
9.00145
8.93775
8.89503
8.88174
8.89867
8.94238
9.0034
9.06976
9.13069
9.17914
9.21145
9.22747
9.22747
9.21145
9.17913
9.13069
9.06976
9.0034
8.94238
8.89871
8.88186
8.89535
8.93848
9.00297
9.0876
9.18829
9.30084
9.42352
9.55386
9.68763
9.82246
9.95646
10.0878
10.2148
10.3361
10.4503
10.5567
10.6548
10.7444
10.8255
10.8975
10.9592
11.0078
11.0383
11.0433
11.0135
10.9404
10.8219
10.6671
10.4975
10.3393
10.2119
10.122
10.0652
10.0325
10.0152
10.0066
10.0027
10.0011
10.0004
10.0001
10
10
10
10
10
10
10
10
10
10
10
10
10
10
10
10
10
10
10
10
10
10
10
10
10
10
10.4088
10.309
10.2013
10.0869
9.96739
9.84432
9.71939
9.59428
9.47082
9.35143
9.24039
9.13999
9.0521
8.98134
8.93206
8.90379
8.90738
8.94123
8.99914
9.06976
9.14119
9.20276
9.24981
9.27986
9.29445
9.29445
9.27986
9.24981
9.20276
9.14119
9.06977
8.99919
8.94135
8.90766
8.9044
8.93331
8.98372
9.05634
9.14706
9.25154
9.3681
9.49453
9.62651
9.76145
9.89729
10.0321
10.1639
10.2908
10.4114
10.5243
10.6287
10.724
10.8099
10.886
10.9516
11.0041
11.0395
11.0506
11.0285
10.9642
10.8535
10.7033
10.5333
10.3698
10.2347
10.1371
10.0743
10.0375
10.0178
10.0079
10.0033
10.0013
10.0005
10.0002
10.0001
10
10
10
10
10
10
10
10
10
10
10
10
10
10
10
10
10
10
10
10
10
10
10
10
10
10.3722
10.2673
10.1548
10.0365
9.91418
9.78965
9.66483
9.54153
9.42167
9.30776
9.20403
9.11255
9.03512
8.97631
8.94027
8.92444
8.94194
8.98854
9.05563
9.13069
9.20276
9.26172
9.30534
9.33207
9.34481
9.34481
9.33207
9.30534
9.26172
9.20277
9.13072
9.05571
8.98873
8.94237
8.92533
8.94199
8.97945
9.0405
9.12109
9.21759
9.32748
9.44873
9.57793
9.71165
9.84793
9.98468
10.1198
10.2512
10.377
10.4955
10.6054
10.7057
10.7961
10.876
10.9448
11.0006
11.0397
11.0556
11.0395
10.9822
10.8783
10.7324
10.5626
10.3955
10.2543
10.1503
10.0824
10.0421
10.0201
10.0091
10.0038
10.0015
10.0006
10.0002
10.0001
10
10
10
10
10
10
10
10
10
10
10
10
10
10
10
10
10
10
10
10
10
10
10
10
10
10.3425
10.2334
10.1173
9.99607
9.87176
9.74648
9.62228
9.50108
9.38486
9.2762
9.17919
9.09567
9.02737
8.97876
8.95361
8.9475
8.97531
9.03054
9.10281
9.17914
9.24981
9.30534
9.34548
9.3692
9.38033
9.38034
9.3692
9.34549
9.30535
9.24982
9.17918
9.10293
9.03079
8.97586
8.94861
8.95572
8.9825
9.03366
9.10552
9.19449
9.29816
9.4147
9.54075
9.67287
9.80901
9.94699
10.0846
10.2195
10.3495
10.4726
10.5871
10.6918
10.7859
10.8691
10.9405
10.9987
11.0403
11.0595
11.0477
10.9955
10.8967
10.7544
10.5852
10.4155
10.2697
10.1609
10.0889
10.0458
10.0221
10.01
10.0043
10.0017
10.0006
10.0002
10.0001
10
10
10
10
10
10
10
10
10
10
10
10
10
10
10
10
10
10
10
10
10
10
10
10
10
10.3216
10.2097
10.0913
9.96828
9.84295
9.71757
9.59427
9.47504
9.36192
9.25746
9.16558
9.088
9.0264
8.98502
8.96739
8.96755
9.00165
9.06156
9.13585
9.21145
9.27986
9.33207
9.3692
9.39048
9.40033
9.40033
9.39048
9.36921
9.33208
9.27988
9.21151
9.13598
9.06186
9.00229
8.96882
8.96976
8.98918
9.03332
9.09875
9.18207
9.28095
9.39366
9.51694
9.6474
9.78294
9.92134
10.0603
10.1973
10.33
10.4562
10.5738
10.6816
10.7785
10.8639
10.9372
10.997
11.0403
11.0617
11.0527
11.004
10.9086
10.7689
10.6004
10.4291
10.2804
10.1683
10.0935
10.0484
10.0235
10.0107
10.0046
10.0019
10.0007
10.0002
10.0001
10
10
10
10
10
10
10
10
10
10
10
10
10
10
10
10
10
10
10
10
10
10
10
10
10
10.3108
10.1975
10.0779
9.954
9.82824
9.70289
9.58017
9.46209
9.35071
9.24855
9.15945
9.08506
9.02698
8.98935
8.97554
8.97875
9.0158
9.07773
9.15262
9.22747
9.29445
9.34481
9.38034
9.40033
9.40951
9.40952
9.40033
9.38034
9.34482
9.29447
9.22754
9.15277
9.07806
9.01649
8.9801
8.97803
8.99373
9.03423
9.09627
9.17656
9.27283
9.38341
9.50511
9.63458
9.7697
9.90823
10.0478
10.1858
10.3199
10.4476
10.567
10.6764
10.7747
10.8613
10.9356
10.9962
11.0404
11.0628
11.0552
11.0081
10.9146
10.7762
10.6081
10.4361
10.2859
10.1721
10.0959
10.0498
10.0242
10.0111
10.0048
10.0019
10.0007
10.0003
10.0001
10
10
10
10
10
10
10
10
10
10
10
10
10
10
10
10
10
10
10
10
10
10
10
10
10
10.3108
10.1975
10.0779
9.954
9.82824
9.70289
9.58017
9.46209
9.35071
9.24855
9.15945
9.08506
9.02698
8.98935
8.97554
8.97875
9.0158
9.07773
9.15262
9.22747
9.29445
9.34481
9.38034
9.40033
9.40951
9.40952
9.40033
9.38034
9.34482
9.29447
9.22754
9.15277
9.07806
9.01649
8.9801
8.97803
8.99373
9.03423
9.09627
9.17656
9.27283
9.38341
9.50511
9.63458
9.7697
9.90823
10.0478
10.1858
10.3199
10.4476
10.567
10.6764
10.7747
10.8613
10.9356
10.9962
11.0404
11.0628
11.0552
11.0081
10.9146
10.7762
10.6081
10.4361
10.2859
10.1721
10.0959
10.0498
10.0242
10.0111
10.0048
10.0019
10.0007
10.0003
10.0001
10
10
10
10
10
10
10
10
10
10
10
10
10
10
10
10
10
10
10
10
10
10
10
10
10
10.3216
10.2097
10.0913
9.96828
9.84295
9.71757
9.59427
9.47504
9.36192
9.25746
9.16558
9.088
9.0264
8.98502
8.96739
8.96755
9.00165
9.06156
9.13585
9.21145
9.27986
9.33207
9.36921
9.39048
9.40033
9.40033
9.39048
9.36921
9.33208
9.27988
9.21151
9.13598
9.06186
9.00229
8.96882
8.96976
8.98918
9.03332
9.09875
9.18207
9.28095
9.39366
9.51694
9.6474
9.78294
9.92134
10.0603
10.1973
10.33
10.4562
10.5738
10.6816
10.7785
10.8639
10.9372
10.997
11.0403
11.0617
11.0527
11.004
10.9086
10.7689
10.6004
10.4291
10.2804
10.1683
10.0935
10.0484
10.0235
10.0107
10.0046
10.0019
10.0007
10.0002
10.0001
10
10
10
10
10
10
10
10
10
10
10
10
10
10
10
10
10
10
10
10
10
10
10
10
10
10.3425
10.2334
10.1173
9.99607
9.87176
9.74648
9.62228
9.50108
9.38486
9.2762
9.17919
9.09567
9.02737
8.97876
8.95361
8.9475
8.97531
9.03053
9.10281
9.17913
9.24981
9.30534
9.34549
9.36921
9.38034
9.38034
9.36921
9.34549
9.30535
9.24982
9.17918
9.10293
9.03079
8.97586
8.94861
8.95571
8.9825
9.03366
9.10552
9.19449
9.29816
9.4147
9.54075
9.67287
9.80901
9.94699
10.0846
10.2195
10.3495
10.4726
10.5871
10.6918
10.7859
10.8691
10.9405
10.9987
11.0403
11.0595
11.0477
10.9955
10.8967
10.7544
10.5852
10.4155
10.2697
10.1609
10.0889
10.0458
10.0221
10.01
10.0043
10.0017
10.0006
10.0002
10.0001
10
10
10
10
10
10
10
10
10
10
10
10
10
10
10
10
10
10
10
10
10
10
10
10
10
10.3722
10.2673
10.1548
10.0365
9.91418
9.78965
9.66483
9.54153
9.42167
9.30776
9.20403
9.11255
9.03511
8.97631
8.94026
8.92444
8.94194
8.98853
9.05562
9.13069
9.20276
9.26172
9.30535
9.33208
9.34482
9.34482
9.33208
9.30535
9.26173
9.20277
9.13072
9.05571
8.98873
8.94236
8.92533
8.94198
8.97944
9.04049
9.12109
9.21759
9.32748
9.44873
9.57793
9.71165
9.84793
9.98468
10.1198
10.2512
10.377
10.4955
10.6054
10.7057
10.7961
10.876
10.9448
11.0006
11.0397
11.0556
11.0395
10.9822
10.8783
10.7324
10.5626
10.3955
10.2543
10.1503
10.0824
10.0421
10.0201
10.0091
10.0038
10.0015
10.0006
10.0002
10.0001
10
10
10
10
10
10
10
10
10
10
10
10
10
10
10
10
10
10
10
10
10
10
10
10
10
10.4088
10.309
10.2013
10.0869
9.96739
9.84432
9.71939
9.59428
9.47082
9.35142
9.24039
9.13999
9.0521
8.98133
8.93205
8.90377
8.90736
8.94122
8.99914
9.06976
9.14119
9.20277
9.24982
9.27988
9.29447
9.29447
9.27988
9.24983
9.20277
9.1412
9.06977
8.99918
8.94134
8.90764
8.90439
8.9333
8.98371
9.05633
9.14706
9.25154
9.36809
9.49453
9.62651
9.76145
9.89729
10.0321
10.1639
10.2908
10.4114
10.5243
10.6287
10.724
10.8099
10.886
10.9516
11.0041
11.0395
11.0506
11.0285
10.9642
10.8535
10.7033
10.5333
10.3698
10.2347
10.1371
10.0743
10.0375
10.0178
10.0079
10.0033
10.0013
10.0005
10.0002
10.0001
10
10
10
10
10
10
10
10
10
10
10
10
10
10
10
10
10
10
10
10
10
10
10
10
10
10.4505
10.3567
10.2548
10.1456
10.0302
9.90994
9.78616
9.66042
9.53435
9.41025
9.29229
9.18311
9.08467
9.00142
8.93772
8.895
8.88171
8.89865
8.94236
9.0034
9.06977
9.13072
9.17918
9.21151
9.22754
9.22754
9.21151
9.17918
9.13072
9.06977
9.0034
8.94237
8.89868
8.88182
8.89531
8.93845
9.00294
9.08758
9.18827
9.30083
9.42352
9.55385
9.68763
9.82246
9.95646
10.0878
10.2148
10.3361
10.4503
10.5567
10.6548
10.7444