<?xml version="1.0"?>
<VTKFile type="StructuredGrid">
<StructuredGrid WholeExtent="0 100 0 100 0 0">
<Piece Extent="0 100 0 100 0 0">
<Points>
<DataArray NumberOfComponents="3" type="Float32" format="ascii">
0 0 0
10 0 0
20 0 0
30 0 0
40 0 0
50 0 0
60 0 0
70 0 0
80 0 0
90 0 0
100 0 0
110 0 0
120 0 0
130 0 0
140 0 0
150 0 0
160 0 0
170 0 0
180 0 0
190 0 0
200 0 0
210 0 0
220 0 0
230 0 0
240 0 0
250 0 0
260 0 0
270 0 0
280 0 0
290 0 0
300 0 0
310 0 0
320 0 0
330 0 0
340 0 0
350 0 0
360 0 0
370 0 0
380 0 0
390 0 0
400 0 0
410 0 0
420 0 0
430 0 0
440 0 0
450 0 0
460 0 0
470 0 0
480 0 0
490 0 0
500 0 0
510 0 0
520 0 0
530 0 0
540 0 0
550 0 0
560 0 0
570 0 0
580 0 0
590 0 0
600 0 0
610 0 0
620 0 0
630 0 0
640 0 0
650 0 0
660 0 0
670 0 0
680 0 0
690 0 0
700 0 0
710 0 0
720 0 0
730 0 0
740 0 0
750 0 0
760 0 0
770 0 0
780 0 0
790 0 0
800 0 0
810 0 0
820 0 0
830 0 0
840 0 0
850 0 0
860 0 0
870 0 0
880 0 0
890 0 0
900 0 0
910 0 0
920 0 0
930 0 0
940 0 0
950 0 0
960 0 0
970 0 0
980 0 0
990 0 0
1000 0 0
0 10 0
10 10 0
20 10 0
30 10 0
40 10 0
50 10 0
60 10 0
70 10 0
80 10 0
90 10 0
100 10 0
110 10 0
120 10 0
130 10 0
140 10 0
150 10 0
160 10 0
170 10 0
180 10 0
190 10 0
200 10 0
210 10 0
220 10 0
230 10 0
240 10 0
250 10 0
260 10 0
270 10 0
280 10 0
290 10 0
300 10 0
310 10 0
320 10 0
330 10 0
340 10 0
350 10 0
360 10 0
370 10 0
380 10 0
390 10 0
400 10 0
410 10 0
420 10 0
430 10 0
440 10 0
450 10 0
460 10 0
470 10 0
480 10 0
490 10 0
500 10 0
510 10 0
520 10 0
530 10 0
540 10 0
550 10 0
560 10 0
570 10 0
580 10 0
590 10 0
600 10 0
610 10 0
620 10 0
630 10 0
640 10 0
650 10 0
660 10 0
670 10 0
680 10 0
690 10 0
700 10 0
710 10 0
720 10 0
730 10 0
740 10 0
750 10 0
760 10 0
770 10 0
780 10 0
790 10 0
800 10 0
810 10 0
820 10 0
830 10 0
840 10 0
850 10 0
860 10 0
870 10 0
880 10 0
890 10 0
900 10 0
910 10 0
920 10 0
930 10 0
940 10 0
950 10 0
960 10 0
970 10 0
980 10 0
990 10 0
1000 10 0
0 20 0
10 20 0
20 20 0
30 20 0
40 20 0
50 20 0
60 20 0
70 20 0
80 20 0
90 20 0
100 20 0
110 20 0
120 20 0
130 20 0
140 20 0
150 20 0
160 20 0
170 20 0
180 20 0
190 20 0
200 20 0
210 20 0
220 20 0
230 20 0
240 20 0
250 20 0
260 20 0
270 20 0
280 20 0
290 20 0
300 20 0
310 20 0
320 20 0
330 20 0
340 20 0
350 20 0
360 20 0
370 20 0
380 20 0
390 20 0
400 20 0
410 20 0
420 20 0
430 20 0
440 20 0
450 20 0
460 20 0
470 20 0
480 20 0
490 20 0
500 20 0
510 20 0
520 20 0
530 20 0
540 20 0
550 20 0
560 20 0
570 20 0
580 20 0
590 20 0
600 20 0
610 20 0
620 20 0
630 20 0
640 20 0
650 20 0
660 20 0
670 20 0
680 20 0
690 20 0
700 20 0
710 20 0
720 20 0
730 20 0
740 20 0
750 20 0
760 20 0
770 20 0
780 20 0
790 20 0
800 20 0
810 20 0
820 20 0
830 20 0
840 20 0
850 20 0
860 20 0
870 20 0
880 20 0
890 20 0
900 20 0
910 20 0
920 20 0
930 20 0
940 20 0
950 20 0
960 20 0
970 20 0
980 20 0
990 20 0
1000 20 0
0 30 0
10 30 0
20 30 0
30 30 0
40 30 0
50 30 0
60 30 0
70 30 0
80 30 0
90 30 0
100 30 0
110 30 0
120 30 0
130 30 0
140 30 0
150 30 0
160 30 0
170 30 0
180 30 0
190 30 0
200 30 0
210 30 0
220 30 0
230 30 0
240 30 0
250 30 0
260 30 0
270 30 0
280 30 0
290 30 0
300 30 0
310 30 0
320 30 0
330 30 0
340 30 0
350 30 0
360 30 0
370 30 0
380 30 0
390 30 0
400 30 0
410 30 0
420 30 0
430 30 0
440 30 0
450 30 0
460 30 0
470 30 0
480 30 0
490 30 0
500 30 0
510 30 0
520 30 0
530 30 0
540 30 0
550 30 0
560 30 0
570 30 0
580 30 0
590 30 0
600 30 0
610 30 0
620 30 0
630 30 0
640 30 0
650 30 0
660 30 0
670 30 0
680 30 0
690 30 0
700 30 0
710 30 0
720 30 0
730 30 0
740 30 0
750 30 0
760 30 0
770 30 0
780 30 0
790 30 0
800 30 0
810 30 0
820 30 0
830 30 0
840 30 0
850 30 0
860 30 0
870 30 0
880 30 0
890 30 0
900 30 0
910 30 0
920 30 0
930 30 0
940 30 0
950 30 0
960 30 0
970 30 0
980 30 0
990 30 0
1000 30 0
0 40 0
10 40 0
20 40 0
30 40 0
40 40 0
50 40 0
60 40 0
70 40 0
80 40 0
90 40 0
100 40 0
110 40 0
120 40 0
130 40 0
140 40 0
150 40 0
160 40 0
170 40 0
180 40 0
190 40 0
200 40 0
210 40 0
220 40 0
230 40 0
240 40 0
250 40 0
260 40 0
270 40 0
280 40 0
290 40 0
300 40 0
310 40 0
320 40 0
330 40 0
340 40 0
350 40 0
360 40 0
370 40 0
380 40 0
390 40 0
400 40 0
410 40 0
420 40 0
430 40 0
440 40 0
450 40 0
460 40 0
470 40 0
480 40 0
490 40 0
500 40 0
510 40 0
520 40 0
530 40 0
540 40 0
550 40 0
560 40 0
570 40 0
580 40 0
590 40 0
600 40 0
610 40 0
620 40 0
630 40 0
640 40 0
650 40 0
660 40 0
670 40 0
680 40 0
690 40 0
700 40 0
710 40 0
720 40 0
730 40 0
740 40 0
750 40 0
760 40 0
770 40 0
780 40 0
790 40 0
800 40 0
810 40 0
820 40 0
830 40 0
840 40 0
850 40 0
860 40 0
870 40 0
880 40 0
890 40 0
900 40 0
910 40 0
920 40 0
930 40 0
940 40 0
950 40 0
960 40 0
970 40 0
980 40 0
990 40 0
1000 40 0
0 50 0
10 50 0
20 50 0
30 50 0
40 50 0
50 50 0
60 50 0
70 50 0
80 50 0
90 50 0
100 50 0
110 50 0
120 50 0
130 50 0
140 50 0
150 50 0
160 50 0
170 50 0
180 50 0
190 50 0
200 50 0
210 50 0
220 50 0
230 50 0
240 50 0
250 50 0
260 50 0
270 50 0
280 50 0
290 50 0
300 50 0
310 50 0
320 50 0
330 50 0
340 50 0
350 50 0
360 50 0
370 50 0
380 50 0
390 50 0
400 50 0
410 50 0
420 50 0
430 50 0
440 50 0
450 50 0
460 50 0
470 50 0
480 50 0
490 50 0
500 50 0
510 50 0
520 50 0
530 50 0
540 50 0
550 50 0
560 50 0
570 50 0
580 50 0
590 50 0
600 50 0
610 50 0
620 50 0
630 50 0
640 50 0
650 50 0
660 50 0
670 50 0
680 50 0
690 50 0
700 50 0
710 50 0
720 50 0
730 50 0
740 50 0
750 50 0
760 50 0
770 50 0
780 50 0
790 50 0
800 50 0
810 50 0
820 50 0
830 50 0
840 50 0
850 50 0
860 50 0
870 50 0
880 50 0
890 50 0
900 50 0
910 50 0
920 50 0
930 50 0
940 50 0
950 50 0
960 50 0
970 50 0
980 50 0
990 50 0
1000 50 0
0 60 0
10 60 0
20 60 0
30 60 0
40 60 0
50 60 0
60 60 0
70 60 0
80 60 0
90 60 0
100 60 0
110 60 0
120 60 0
130 60 0
140 60 0
150 60 0
160 60 0
170 60 0
180 60 0
190 60 0
200 60 0
210 60 0
220 60 0
230 60 0
240 60 0
250 60 0
260 60 0
270 60 0
280 60 0
290 60 0
300 60 0
310 60 0
320 60 0
330 60 0
340 60 0
350 60 0
360 60 0
370 60 0
380 60 0
390 60 0
400 60 0
410 60 0
420 60 0
430 60 0
440 60 0
450 60 0
460 60 0
470 60 0
480 60 0
490 60 0
500 60 0
510 60 0
520 60 0
530 60 0
540 60 0
550 60 0
560 60 0
570 60 0
580 60 0
590 60 0
600 60 0
610 60 0
620 60 0
630 60 0
640 60 0
650 60 0
660 60 0
670 60 0
680 60 0
690 60 0
700 60 0
710 60 0
720 60 0
730 60 0
740 60 0
750 60 0
760 60 0
770 60 0
780 60 0
790 60 0
800 60 0
810 60 0
820 60 0
830 60 0
840 60 0
850 60 0
860 60 0
870 60 0
880 60 0
890 60 0
900 60 0
910 60 0
920 60 0
930 60 0
940 60 0
950 60 0
960 60 0
970 60 0
980 60 0
990 60 0
1000 60 0
0 70 0
10 70 0
20 70 0
30 70 0
40 70 0
50 70 0
60 70 0
70 70 0
80 70 0
90 70 0
100 70 0
110 70 0
120 70 0
130 70 0
140 70 0
150 70 0
160 70 0
170 70 0
180 70 0
190 70 0
200 70 0
210 70 0
220 70 0
230 70 0
240 70 0
250 70 0
260 70 0
270 70 0
280 70 0
290 70 0
300 70 0
310 70 0
320 70 0
330 70 0
340 70 0
350 70 0
360 70 0
370 70 0
380 70 0
390 70 0
400 70 0
410 70 0
420 70 0
430 70 0
440 70 0
450 70 0
460 70 0
470 70 0
480 70 0
490 70 0
500 70 0
510 70 0
520 70 0
530 70 0
540 70 0
550 70 0
560 70 0
570 70 0
580 70 0
590 70 0
600 70 0
610 70 0
620 70 0
630 70 0
640 70 0
650 70 0
660 70 0
670 70 0
680 70 0
690 70 0
700 70 0
710 70 0
720 70 0
730 70 0
740 70 0
750 70 0
760 70 0
770 70 0
780 70 0
790 70 0
800 70 0
810 70 0
820 70 0
830 70 0
840 70 0
850 70 0
860 70 0
870 70 0
880 70 0
890 70 0
900 70 0
910 70 0
920 70 0
930 70 0
940 70 0
950 70 0
960 70 0
970 70 0
980 70 0
990 70 0
1000 70 0
0 80 0
10 80 0
20 80 0
30 80 0
40 80 0
50 80 0
60 80 0
70 80 0
80 80 0
90 80 0
100 80 0
110 80 0
120 80 0
130 80 0
140 80 0
150 80 0
160 80 0
170 80 0
180 80 0
190 80 0
200 80 0
210 80 0
220 80 0
230 80 0
240 80 0
250 80 0
260 80 0
270 80 0
280 80 0
290 80 0
300 80 0
310 80 0
320 80 0
330 80 0
340 80 0
350 80 0
360 80 0
370 80 0
380 80 0
390 80 0
400 80 0
410 80 0
420 80 0
430 80 0
440 80 0
450 80 0
460 80 0
470 80 0
480 80 0
490 80 0
500 80 0
510 80 0
520 80 0
530 80 0
540 80 0
550 80 0
560 80 0
570 80 0
580 80 0
590 80 0
600 80 0
610 80 0
620 80 0
630 80 0
640 80 0
650 80 0
660 80 0
670 80 0
680 80 0
690 80 0
700 80 0
710 80 0
720 80 0
730 80 0
740 80 0
750 80 0
760 80 0
770 80 0
780 80 0
790 80 0
800 80 0
810 80 0
820 80 0
830 80 0
840 80 0
850 80 0
860 80 0
870 80 0
880 80 0
890 80 0
900 80 0
910 80 0
920 80 0
930 80 0
940 80 0
950 80 0
960 80 0
970 80 0
980 80 0
990 80 0
1000 80 0
0 90 0
10 90 0
20 90 0
30 90 0
40 90 0
50 90 0
60 90 0
70 90 0
80 90 0
90 90 0
100 90 0
110 90 0
120 90 0
130 90 0
140 90 0
150 90 0
160 90 0
170 90 0
180 90 0
190 90 0
200 90 0
210 90 0
220 90 0
230 90 0
240 90 0
250 90 0
260 90 0
270 90 0
280 90 0
290 90 0
300 90 0
310 90 0
320 90 0
330 90 0
340 90 0
350 90 0
360 90 0
370 90 0
380 90 0
390 90 0
400 90 0
410 90 0
420 90 0
430 90 0
440 90 0
450 90 0
460 90 0
470 90 0
480 90 0
490 90 0
500 90 0
510 90 0
520 90 0
530 90 0
540 90 0
550 90 0
560 90 0
570 90 0
580 90 0
590 90 0
600 90 0
610 90 0
620 90 0
630 90 0
640 90 0
650 90 0
660 90 0
670 90 0
680 90 0
690 90 0
700 90 0
710 90 0
720 90 0
730 90 0
740 90 0
750 90 0
760 90 0
770 90 0
780 90 0
790 90 0
800 90 0
810 90 0
820 90 0
830 90 0
840 90 0
850 90 0
860 90 0
870 90 0
880 90 0
890 90 0
900 90 0
910 90 0
920 90 0
930 90 0
940 90 0
950 90 0
960 90 0
970 90 0
980 90 0
990 90 0
1000 90 0
0 100 0
10 100 0
20 100 0
30 100 0
40 100 0
50 100 0
60 100 0
70 100 0
80 100 0
90 100 0
100 100 0
110 100 0
120 100 0
130 100 0
140 100 0
150 100 0
160 100 0
170 100 0
180 100 0
190 100 0
200 100 0
210 100 0
220 100 0
230 100 0
240 100 0
250 100 0
260 100 0
270 100 0
280 100 0
290 100 0
300 100 0
310 100 0
320 100 0
330 100 0
340 100 0
350 100 0
360 100 0
370 100 0
380 100 0
390 100 0
400 100 0
410 100 0
420 100 0
430 100 0
440 100 0
450 100 0
460 100 0
470 100 0
480 100 0
490 100 0
500 100 0
510 100 0
520 100 0
530 100 0
540 100 0
550 100 0
560 100 0
570 100 0
580 100 0
590 100 0
600 100 0
610 100 0
620 100 0
630 100 0
640 100 0
650 100 0
660 100 0
670 100 0
680 100 0
690 100 0
700 100 0
710 100 0
720 100 0
730 100 0
740 100 0
750 100 0
760 100 0
770 100 0
780 100 0
790 100 0
800 100 0
810 100 0
820 100 0
830 100 0
840 100 0
850 100 0
860 100 0
870 100 0
880 100 0
890 100 0
900 100 0
[...]
<CellData>
<DataArray Name="h" type="Float32" format="ascii">
10.0073
10.0169
10.0378
10.0771
10.1433
10.2428
10.3753
10.5315
10.6939
10.8435
10.9662
11.0562
11.1152
11.1491
11.1649
11.1695
11.1676
11.1625
11.1556
11.1474
11.1396
11.132
11.1261
11.1215
11.1192
11.1192
11.1215
11.1261
11.132
11.1396
11.1474
11.1556
11.1625
11.1676
11.1695
11.1649
11.1491
11.1152
11.0562
10.9662
10.8435
10.6939
10.5315
10.3753
10.2428
10.1433
10.0771
10.0377
10.0167
10.0067
10.0024
10.0008
10.0002
10.0001
10
10
10
10
10
10
10
10
10
10
10
10
10
10
10
10
10
10
10
10
10
10
10
10
10
10
10
10
10
10
10
10
10
10
10
10
10
10
10
10
10
10
10
10
10
10
10.0169
10.0362
10.0745
10.1405
10.2414
10.3776
10.5394
10.708
10.863
10.9892
11.0804
11.1383
11.169
11.1799
11.1779
11.1693
11.1576
11.145
11.132
11.1188
11.1079
11.0984
11.0918
11.0872
11.085
11.085
11.0872
11.0918
11.0984
11.1079
11.1188
11.132
11.145
11.1576
11.1693
11.1779
11.1799
11.169
11.1383
11.0804
10.9892
10.863
10.708
10.5394
10.3776
10.2414
10.1405
10.0743
10.0357
10.0155
10.0061
10.0021
10.0007
10.0002
10
10
10
10
10
10
10
10
10
10
10
10
10
10
10
10
10
10
10
10
10
10
10
10
10
10
10
10
10
10
10
10
10
10
10
10
10
10
10
10
10
10
10
10
10
10
10.0378
10.0745
10.1408
10.2438
10.3838
10.5497
10.7209
10.8756
10.999
11.0862
11.14
11.1671
11.1748
11.1696
11.1564
11.14
11.1223
11.1049
11.0875
11.0709
11.0579
11.0476
11.0412
11.0373
11.0356
11.0356
11.0373
11.0412
11.0476
11.0579
11.0709
11.0875
11.1049
11.1223
11.14
11.1564
11.1696
11.1748
11.1671
11.14
11.0862
10.999
10.8756
10.7209
10.5497
10.3838
10.2437
10.1404
10.0733
10.0347
10.0148
10.0057
10.002
10.0006
10.0002
10
10
10
10
10
10
10
10
10
10
10
10
10
10
10
10
10
10
10
10
10
10
10
10
10
10
10
10
10
10
10
10
10
10
10
10
10
10
10
10
10
10
10
10
10
10.0771
10.1405
10.2438
10.3869
10.5572
10.732
10.8871
11.007
11.0879
11.1346
11.1554
11.1582
11.1495
11.1334
11.1129
11.0916
11.0696
11.0482
11.0272
11.0077
10.9928
10.9818
10.9753
10.9719
10.9706
10.9706
10.9719
10.9753
10.9818
10.9928
11.0077
11.0272
11.0482
11.0696
11.0916
11.1129
11.1334
11.1495
11.1582
11.1554
11.1346
11.0879
11.007
10.8871
10.732
10.5571
10.3865
10.2428
10.1379
10.0708
10.0329
10.0138
10.0052
10.0018
10.0005
10.0001
10
10
10
10
10
10
10
10
10
10
10
10
10
10
10
10
10
10
10
10
10
10
10
10
10
10
10
10
10
10
10
10
10
10
10
10
10
10
10
10
10
10
10
10
10.1433
10.2414
10.3838
10.5572
10.7364
10.8944
11.0138
11.0907
11.1312
11.1449
11.1411
11.1269
11.1067
11.0829
11.0566
11.0308
11.0048
10.9792
10.9542
10.9314
10.9138
10.901
10.893
10.8889
10.8872
10.8872
10.8889
10.893
10.901
10.9138
10.9314
10.9542
10.9792
11.0048
11.0308
11.0566
11.0829
11.1067
11.1269
11.1411
11.1449
11.1312
11.0907
11.0138
10.8943
10.7361
10.5564
10.3816
10.236
10.1316
10.0662
10.0301
10.0124
10.0046
10.0015
10.0004
10.0001
10
10
10
10
10
10
10
10
10
10
10
10
10
10
10
10
10
10
10
10
10
10
10
10
10
10
10
10
10
10
10
10
10
10
10
10
10
10
10
10
10
10
10
10.2428
10.3776
10.5497
10.732
10.8944
11.0165
11.0932
11.1305
11.1391
11.1294
11.1092
11.0836
11.0551
11.0249
10.9928
10.9623
10.9313
10.9006
10.8705
10.8432
10.8209
10.8042
10.7923
10.7855
10.7824
10.7824
10.7855
10.7923
10.8042
10.8209
10.8432
10.8705
10.9006
10.9313
10.9623
10.9928
11.0249
11.0551
11.0836
11.1092
11.1294
11.1391
11.1305
11.0931
11.0163
10.8937
10.7302
10.5452
10.3679
10.2232
10.1218
10.0599
10.0266
10.0107
10.0038
10.0012
10.0003
10.0001
10
10
10
10
10
10
10
10
10
10
10
10
10
10
10
10
10
10
10
10
10
10
10
10
10
10
10
10
10
10
10
10
10
10
10
10
10
10
10
10
10
10
10.3753
10.5394
10.7209
10.8871
11.0138
11.0932
11.1305
11.1369
11.1233
11.0984
11.0676
11.0342
10.9992
10.9629
10.9247
10.8885
10.8515
10.8143
10.7775
10.7435
10.714
10.6904
10.6716
10.6599
10.6541
10.6541
10.6599
10.6716
10.6904
10.714
10.7435
10.7775
10.8143
10.8515
10.8885
10.9247
10.9629
10.9992
11.0342
11.0676
11.0984
11.1233
11.1368
11.1304
11.0927
11.0124
10.8836
10.7131
10.5234
10.3458
10.2049
10.1091
10.0523
10.0227
10.0088
10.0031
10.001
10.0003
10.0001
10
10
10
10
10
10
10
10
10
10
10
10
10
10
10
10
10
10
10
10
10
10
10
10
10
10
10
10
10
10
10
10
10
10
10
10
10
10
10
10
10
10.5315
10.708
10.8756
11.007
11.0907
11.1305
11.1369
11.1215
11.0934
11.0587
11.0209
10.9814
10.9407
10.8981
10.8532
10.8106
10.7664
10.7211
10.6755
10.6324
10.5925
10.5589
10.5306
10.5117
10.5019
10.5019
10.5117
10.5306
10.5589
10.5925
10.6324
10.6755
10.7211
10.7664
10.8106
10.8532
10.8981
10.9407
10.9814
11.0209
11.0587
11.0934
11.1214
11.1365
11.1295
11.0882
11.001
10.8632
10.6845
10.4913
10.3163
10.1824
10.0944
10.0441
10.0186
10.007
10.0024
10.0007
10.0002
10
10
10
10
10
10
10
10
10
10
10
10
10
10
10
10
10
10
10
10
10
10
10
10
10
10
10
10
10
10
10
10
10
10
10
10
10
10
10
10
10
10.6939
10.863
10.999
11.0879
11.1312
11.1391
11.1233
11.0934
11.0559
11.0146
10.9713
10.9264
10.8798
10.8307
10.7786
10.7288
10.6761
10.621
10.5644
10.5096
10.4566
10.4102
10.37
10.3423
10.3277
10.3277
10.3423
10.37
10.4102
10.4566
10.5096
10.5644
10.621
10.6761
10.7288
10.7786
10.8307
10.8798
10.9264
10.9713
11.0146
11.0559
11.0932
11.1227
11.1373
11.127
11.0787
10.9811
10.8316
10.6444
10.4499
10.2809
10.157
10.0788
10.0357
10.0146
10.0054
10.0018
10.0005
10.0001
10
10
10
10
10
10
10
10
10
10
10
10
10
10
10
10
10
10
10
10
10
10
10
10
10
10
10
10
10
10
10
10
10
10
10
10
10
10
10
10
10.8435
10.9892
11.0862
11.1346
11.1449
11.1294
11.0984
11.0587
11.0146
10.968
10.9196
10.8692
10.8164
10.7603
10.7004
10.6424
10.5799
10.5131
10.4435
10.3748
10.3066
10.2455
10.1921
10.1548
10.1349
10.1349
10.1548
10.1921
10.2455
10.3066
10.3748
10.4435
10.5131
10.5799
10.6424
10.7004
10.7603
10.8164
10.8692
10.9195
10.9679
11.0145
11.0583
11.0972
11.1265
11.1385
11.1218
11.0629
10.9513
10.7882
10.5934
10.4007
10.2416
10.1304
10.0633
10.0278
10.011
10.0039
10.0013
10.0004
10.0001
10
10
10
10
10
10
10
10
10
10
10
10
10
10
10
10
10
10
10
10
10
10
10
10
10
10
10
10
10
10
10
10
10
10
10
10
10
10
10
10.9662
11.0804
11.14
11.1554
11.1411
11.1092
11.0676
11.0209
10.9713
10.9196
10.8658
10.8095
10.7499
10.6861
10.6177
10.5504
10.4765
10.3963
10.3122
10.2281
10.1437
10.0674
10.0006
9.95335
9.92821
9.92821
9.95335
10.0006
10.0674
10.1437
10.2281
10.3122
10.3963
10.4765
10.5504
10.6177
10.6861
10.7499
10.8095
10.8658
10.9195
10.971
11.0202
11.0658
11.105
11.1324
11.139
11.1124
11.0387
10.9098
10.7323
10.5322
10.3458
10.2005
10.1042
10.0488
10.0207
10.0079
10.0027
10.0008
10.0002
10.0001
10
10
10
10
10
10
10
10
10
10
10
10
10
10
10
10
10
10
10
10
10
10
10
10
10
10
10
10
10
10
10
10
10
10
10
10
10
10
11.0562
11.1383
11.1671
11.1582
11.1269
11.0836
11.0342
10.9814
10.9264
10.8692
10.8095
10.7464
10.6793
10.6071
10.5292
10.4512
10.3644
10.2696
10.1701
10.0702
9.96997
9.87889
9.79968
9.74321
9.71321
9.71321
9.74321
9.79968
9.87889
9.96997
10.0702
10.1701
10.2696
10.3644
10.4512
10.5292
10.6071
10.6793
10.7464
10.8094
10.8691
10.926
10.9804
11.0316
11.078
11.116
11.1392
11.1372
11.0963
11.0036
10.8548
10.6638
10.4629
10.2879
10.1599
10.0798
10.036
10.0147
10.0054
10.0018
10.0005
10.0001
10
10
10
10
10
10
10
10
10
10
10
10
10
10
10
10
10
10
10
10
10
10
10
10
10
10
10
10
10
10
10
10
10
10
10
10
10
10
11.1152
11.169
11.1748
11.1495
11.1067
11.0551
10.9992
10.9407
10.8798
10.8164
10.7499
10.6793
10.6037
10.5221
10.4337
10.3435
10.2425
10.1324
10.0175
9.90245
9.78788
9.68382
9.59403
9.52972
9.4956
9.4956
9.52972
9.59403
9.68382
9.78788
9.90245
10.0175
10.1324
10.2425
10.3435
10.4337
10.5221
10.6037
10.6793
10.7498
10.8162
10.8792
10.9392
10.9959
11.0484
11.0944
11.1293
11.1452
11.1304
11.0706
10.9548
10.785
10.584
10.3883
10.2302
10.1222
10.0584
10.0253
10.0099
10.0035
10.0011
10.0003
10.0001
10
10
10
10
10
10
10
10
10
10
10
10
10
10
10
10
10
10
10
10
10
10
10
10
10
10
10
10
10
10
10
10
10
10
10
10
10
11.1491
11.1799
11.1696
11.1334
11.0829
11.0249
10.9629
10.8981
10.8307
10.7603
10.6861
10.6071
10.5221
10.43
10.3299
10.2261
10.1102
9.98491
9.85565
9.72706
9.60053
9.48613
9.38834
9.31815
9.28092
9.28092
9.31815
9.38834
9.48613
9.60053
9.72706
9.85565
9.98491
10.1102
10.2261
10.3299
10.43
10.5221
10.6071
10.686
10.76
10.83
10.8963
10.9589
11.0174
11.0701
11.114
11.1431
11.148
11.1154
11.0313
10.8892
10.7002
10.4953
10.3124
10.1759
10.089
10.0407
10.0169
10.0064
10.0022
10.0007
10.0002
10
10
10
10
10
10
10
10
10
10
10
10
10
10
10
10
10
10
10
10
10
10
10
10
10
10
10
10
10
10
10
10
10
10
10
10
10
11.1649
11.1779
11.1564
11.1129
11.0566
10.9928
10.9247
10.8532
10.7786
10.7004
10.6177
10.5292
10.4337
10.3299
10.2171
10.0987
9.96787
9.8284
9.68643
9.54668
9.41113
9.28946
9.18652
9.11279
9.07376
9.07376
9.11279
9.18652
9.28946
9.41113
9.54668
9.68643
9.8284
9.96787
10.0987
10.2171
10.3299
10.4337
10.5292
10.6175
10.7
10.7777
10.8511
10.9205
10.9854
11.0447
11.0961
11.1355
11.1552
11.144
11.0875
10.9742
10.805
10.6019
10.4022
10.2395
10.1277
10.0615
10.0268
10.0106
10.0038
10.0013
10.0004
10.0001
10
10
10
10
10
10
10
10
10
10
10
10
10
10
10
10
10
10
10
10
10
10
10
10
10
10
10
10
10
10
10
10
10
10
10
10
11.1695
11.1693
11.14
11.0916
11.0308
10.9623
10.8885
10.8106
10.7288
10.6424
10.5504
10.4512
10.3435
10.2261
10.0987
9.96397
9.81717
9.66326
9.50883
9.35864
9.21502
9.08785
8.98198
8.9065
8.86682
8.86682
8.9065
8.98198
9.08785
9.21502
9.35864
9.50883
9.66326
9.81717
9.96397
10.0987
10.2261
10.3434
10.4511
10.5502
10.642
10.7277
10.8084
10.8845
10.9557
11.0212
11.0793
11.1267
11.1576
11.1626
11.1286
11.0416
10.8955
10.7023
10.4944
10.3102
10.1739
10.0877
10.0401
10.0167
10.0063
10.0022
10.0007
10.0002
10
10
10
10
10
10
10
10
10
10
10
10
10
10
10
10
10
10
10
10
10
10
10
10
10
10
10
10
10
10
10
10
10
10
10
10
11.1676
11.1576
11.1223
11.0696
11.0048
10.9313
10.8515
10.7664
10.6761
10.5799
10.4765
10.3644
10.2425
10.1102
9.96787
9.81717
9.65649
9.49144
9.3285
9.17228
9.02715
8.90062
8.79797
8.72539
8.68767
8.68767
8.72539
8.79797
8.90062
9.02715
9.17228
9.3285
9.49144
9.65649
9.81717
9.96787
10.1102
10.2425
10.3643
10.4763
10.5795
10.6752
10.7645
10.8483
10.9265
10.9986
11.0632
11.1178
11.1577
11.1754
11.159
11.0945
10.9712
10.7928
10.5843
10.3844
10.2256
10.1188
10.0566
10.0245
10.0097
10.0035
10.0011
10.0003
10.0001
10
10
10
10
10
10
10
10
10
10
10
10
10
10
10
10
10
10
10
10
10
10
10
10
10
10
10
10
10
10
10
10
10
10
10
11.1625
11.145
11.1049
11.0482
10.9792
10.9006
10.8143
10.7211
10.621
10.5131
10.3963
10.2696
10.1324
9.98491
9.8284
9.66326
9.49144
9.31842
9.15048
8.99375
8.85192
8.7308
8.63564
8.57007
8.53677
8.53677
8.57007
8.63564
8.7308
8.85192
8.99375
9.15048
9.31842
9.49144
9.66326
9.8284
9.98491
10.1323
10.2695
10.3961
10.5127
10.6202
10.7198
10.8124
10.8984
10.9774
11.0486
11.1099
11.1576
11.1852
11.1827
11.1365
11.0338
10.8718
10.6679
10.4583
10.2803
10.1535
10.0759
10.0341
10.014
10.0053
10.0018
10.0006
10.0002
10
10
10
10
10
10
10
10
10
10
10
10
10
10
10
10
10
10
10
10
10
10
10
10
10
10
10
10
10
10
10
10
10
10
10
11.1556
11.132
11.0875
11.0272
10.9542
10.8705
10.7775
10.6755
10.5644
10.4435
10.3122
10.1701
10.0175
9.85565
9.68643
9.50883
9.3285
9.15048
8.98276
8.82891
8.69226
8.58006
8.49573
8.44049
8.41367
8.41367
8.44049
8.49573
8.58006
8.69226
8.82891
8.98276
9.15048
9.3285
9.50883
9.68642
9.85564
10.0175
10.17
10.3121
10.4433
10.564
10.675
10.7772
10.8712
10.9572
11.0347
11.1021
11.1565
11.1924
11.201
11.1698
11.0847
10.9389
10.7427
10.5281
10.335
10.19
10.0971
10.0451
10.0191
10.0074
10.0026
10.0009
10.0003
10.0001
10
10
10
10
10
10
10
10
10
10
10
10
10
10
10
10
10
10
10
10
10
10
10
10
10
10
10
10
10
10
10
10
10
10
11.1474
11.1188
11.0709
11.0077
10.9314
10.8432
10.7435
10.6324
10.5096
10.3748
10.2281
10.0702
9.90245
9.72706
9.54668
9.35864
9.17228
8.99375
8.82891
8.67973
8.55269
8.45267
8.38336
8.34202
8.32378
8.32378
8.34202
8.38336
8.45267
8.55269
8.67973
8.82891
8.99375
9.17228
9.35864
9.54668
9.72705
9.90243
10.0701
10.228
10.3747
10.5096
10.6329
10.7451
10.847
10.9393
11.022
11.0943
11.1541
11.1967
11.2144
11.1953
11.1252
10.9941
10.8071
10.5912
10.3868
10.226
10.1189
10.0567
10.0247
10.0099
10.0036
10.0012
10.0004
10.0001
10
10
10
10
10
10
10
10
10
10
10
10
10
10
10
10
10
10
10
10
10
10
10
10
10
10
10
10
10
10
10
10
10
10
11.1396
11.1079
11.0579
10.9928
10.9138
10.8209
10.714
10.5925
10.4566
10.3066
10.1437
9.96997
9.78788
9.60053
9.41114
9.21502
9.02715
8.85192
8.69227
8.55269
8.43946
8.35652
8.30677
8.2831
8.27578
8.27578
8.2831
8.30677
8.35652
8.43946
8.55269
8.69227
8.85192
9.02715
9.21502
9.41113
9.60053
9.78788
9.96998
10.1438
10.3068
10.4571
10.594
10.7174
10.8278
10.9262
11.0134
11.0895
11.1531
11.2008
11.2255
11.2159
11.1579
11.0393
10.8611
10.6459
10.4334
10.2597
10.1398
10.0683
10.0305
10.0125
10.0047
10.0016
10.0005
10.0001
10
10
10
10
10
10
10
10
10
10
10
10
10
10
10
10
10
10
10
10
10
10
10
10
10
10
10
10
10
10
10
10
10
10
11.132
11.0984
11.0476
10.9818
10.901
10.8042
10.6904
10.5589
10.4102
10.2455
10.0674
9.87889
9.68382
9.48613
9.28946
9.08785
8.90062
8.7308
8.58006
8.45267
8.35652
8.29418
8.26708
8.2632
8.26779
8.26779
8.2632
8.26708
8.29418
8.35652
8.45267
8.58006
8.7308
8.90062
9.08785
9.28946
9.48614
9.68384
9.87893
10.0675
10.246
10.4113
10.5614
10.6955
10.8138
10.9174
11.0077
11.0859
11.1517
11.2026
11.2325
11.2306
11.1824
11.0743
10.9041
10.6907
10.4727
10.2889
10.1585
10.0789
10.0359
10.015
10.0057
10.002
10.0007
10.0002
10.0001
10
10
10
10
10
10
10
10
10
10
10
10
10
10
10
10
10
10
10
10
10
10
10
10
10
10
10
10
10
10
10
10
10
11.1261
11.0918
11.0412
10.9753
10.893
10.7923
10.6716
10.5306
10.37
10.1921
10.0006
9.79968
9.59403
9.38834
9.18652
8.98198
8.79797
8.63564
8.49573
8.38336
8.30677
8.26708
8.26395
8.28027
8.29665
8.29665
8.28027
8.26395
8.26708
8.30677
8.38336
8.49573
8.63564
8.79797
8.98198
9.18652
9.38835
9.59406
9.79977
10.0009
10.1928
10.3715
10.5339
10.6782
10.804
10.9126
11.0056
11.0851
11.152
11.2048
11.2382
11.2419
11.2011
11.101
10.937
10.7254
10.5036
10.3123
10.1738
10.0877
10.0404
10.0171
10.0067
10.0024
10.0008
10.0002
10.0001
10
10
10
10
10
10
10
10
10
10
10
10
10
10
10
10
10
10
10
10
10
10
10
10
10
10
10
10
10
10
10
10
10
11.1215
11.0872
11.0373
10.9719
10.8889
10.7855
10.6599
10.5117
10.3423
10.1548
9.95335
9.74321
9.52972
9.31815
9.11279
8.9065
8.72539
8.57007
8.44049
8.34202
8.2831
8.2632
8.28027
8.31311
8.33897
8.33897
8.31311
8.28027
8.2632
8.2831
8.34202
8.44049
8.57007
8.72539
8.90651
9.11279
9.31816
9.52976
9.74333
9.95368
10.1556
10.3442
10.5157
10.6675
10.7988
10.9106
11.0051
11.0849
11.1518
11.2054
11.2408
11.2482
11.2125
11.1181
10.9587
10.7486
10.5246
10.3284
10.1845
10.0939
10.0437
10.0187
10.0074
10.0027
10.0009
10.0003
10.0001
10
10
10
10
10
10
10
10
10
10
10
10
10
10
10
10
10
10
10
10
10
10
10
10
10
10
10
10
10
10
10
10
10
11.1192
11.085
11.0356
10.9706
10.8872
10.7824
10.6541
10.5019
10.3277
10.1349
9.92821
9.71321
9.4956
9.28092
9.07376
8.86682
8.68767
8.53677
8.41368
8.32378
8.27578
8.26779
8.29666
8.33897
8.37023
8.37023
8.33897
8.29666
8.26779
8.27578
8.32378
8.41368
8.53677
8.68767
8.86682
9.07376
9.28094
9.49565
9.71335
9.92858
10.1358
10.3298
10.5062
10.6621
10.7965
10.9101
11.0053
11.0851
11.1519
11.2056
11.2421
11.2512
11.2181
11.1266
10.9695
10.7603
10.5353
10.3367
10.19
10.0972
10.0454
10.0195
10.0077
10.0028
10.0009
10.0003
10.0001
10
10
10
10
10
10
10
10
10
10
10
10
10
10
10
10
10
10
10
10
10
10
10
10
10
10
10
10
10
10
10
10
10
11.1192
11.085
11.0356
10.9706
10.8872
10.7824
10.6541
10.5019
10.3277
10.1349
9.92821
9.71321
9.4956
9.28092
9.07376
8.86682
8.68767
8.53677
8.41368
8.32378
8.27578
8.26779
8.29666
8.33897
8.37023
8.37023
8.33897
8.29666
8.26779
8.27578
8.32378
8.41368
8.53677
8.68767
8.86682
9.07376
9.28094
9.49565
9.71335
9.92858
10.1358
10.3298
10.5062
10.6621
10.7965
10.9101
11.0053
11.0851
11.1519
11.2056
11.2421
11.2512
11.2181
11.1266
10.9695
10.7603
10.5353
10.3367
10.19
10.0972
10.0454
10.0195
10.0077
10.0028
10.0009
10.0003
10.0001
10
10
10
10
10
10
10
10
10
10
10
10
10
10
10
10
10
10
10
10
10
10
10
10
10
10
10
10
10
10
10
10
10
11.1215
11.0872
11.0373
10.9719
10.8889
10.7855
10.6599
10.5117
10.3423
10.1548
9.95335
9.74321
9.52972
9.31815
9.11279
8.9065
8.72539
8.57007
8.44049
8.34202
8.2831
8.2632
8.28027
8.31311
8.33897
8.33897
8.31311
8.28027
8.2632
8.2831
8.34202
8.44049
8.57007
8.72539
8.90651
9.11279
9.31816
9.52976
9.74333
9.95368
10.1556
10.3442
10.5157
10.6675
10.7988
10.9106
11.0051
11.0849
11.1518
11.2054
11.2408
11.2482
11.2125
11.1181
10.9587
10.7486
10.5246
10.3284
10.1845
10.0939
10.0437
10.0187
10.0074
10.0027
10.0009
10.0003
10.0001
10
10
10
10
10
10
10
10
10
10
10
10
10
10
10
10
10
10
10
10
10
10
10
10
10
10
10
10
10
10
10
10
10
11.1261
11.0918
11.0412
10.9753
10.893
10.7923
10.6716
10.5306
10.37
10.1921
10.0006
9.79968
9.59403
9.38834
9.18652
8.98198
8.79797
8.63564
8.49573
8.38336
8.30677
8.26708
8.26395
8.28027
8.29665
8.29665
8.28027
8.26395
8.26708
8.30677
8.38336
8.49573
8.63564
8.79797
8.98198
9.18652
9.38835
9.59406
9.79977
10.0009
10.1928
10.3715
10.5339
10.6782
10.804
10.9126
11.0056
11.0851
11.152
11.2048
11.2382
11.2419
11.2011
11.101
10.937
10.7254
10.5036
10.3123
10.1738
10.0877
10.0404
10.0171
10.0067
10.0024
10.0008
10.0002
10.0001
10
10
10
10
10
10
10
10
10
10
10
10
10
10
10
10
10
10
10
10
10
10
10
10
10
10
10
10
10
10
10
10
10
11.132
11.0984
11.0476
10.9818
10.901
10.8042
10.6904
10.5589
10.4102
10.2455
10.0674
9.87889
9.68382
9.48613
9.28946
9.08785
8.90062
8.7308
8.58006
8.45267
8.35652
8.29418
8.26708
8.2632
8.26779
8.26779
8.2632
8.26708
8.29418
8.35652
8.45267
8.58006
8.7308
8.90062
9.08785
9.28946
9.48614
9.68384
9.87893
10.0675
10.246
10.4113
10.5614
10.6955
10.8138
10.9174
11.0077
11.0859
11.1517
11.2026
11.2325
11.2306
11.1824
11.0743
10.9041
10.6907
10.4727
10.2889
10.1585
10.0789
10.0359
10.015
10.0057
10.002
10.0007
10.0002
10.0001
10
10
10
10
10
10
10
10
10
10
10
10
10
10
10
10
10
10
10
10
10
10
10
10
10
10
10
10
10
10
10
10
10
11.1396
11.1079
11.0579
10.9928
10.9138
10.8209
10.714
10.5925
10.4566
10.3066
10.1437
9.96997
9.78788
9.60053
9.41114
9.21502
9.02715
8.85192
8.69227
8.55269
8.43946
8.35652
8.30677
8.2831
8.27578
8.27578
8.2831
8.30677
8.35652
8.43946
8.55269
8.69227
8.85192
9.02715
9.21502
9.41113
9.60053
9.78788
9.96998
10.1438
10.3068
10.4571
10.594
10.7174
10.8278
10.9262
11.0134
11.0895
11.1531
11.2008
11.2255
11.2159
11.1579
11.0393
10.8611
10.6459
10.4334
10.2597
10.1398
10.0683
10.0305
10.0125
10.0047
10.0016
10.0005
10.0001
10
10
10
10
10
10
10
10
10
10
10
10
10
10
10
10
10
10
10
10
10
10
10
10
10
10
10
10
10
10
10
10
10
10
11.1474
11.1188
11.0709
11.0077
10.9314
10.8432
10.7435
10.6324
10.5096
10.3748
10.2281
10.0702
9.90245
9.72706
9.54668
9.35864
9.17228
8.99375
8.82891
8.67973
8.55269
8.45267
8.38336
8.34202
8.32378
8.32378
8.34202
8.38336
8.45267
8.55269
8.67973
8.82891
8.99375
9.17228
9.35864
9.54668
9.72705
9.90243
10.0701
10.228
10.3747
10.5096
10.6329
10.7451
10.847
10.9393
11.022
11.0943
11.1541
11.1967
11.2144
11.1953
11.1252
10.9941
10.8071
10.5912
10.3868
10.226
10.1189
10.0567
10.0247
10.0099
10.0036
10.0012
10.0004
10.0001
10
10
10
10
10
10
10
10
10
10
10
10
10
10
10
10
10
10
10
10
10
10
10
10
10
10
10
10
10
10
10
10
10
10
11.1556
11.132
11.0875
11.0272
10.9542
10.8705
10.7775
10.6755
10.5644
10.4435
10.3122
10.1701
10.0175
9.85565
9.68643
9.50883
9.3285
9.15048
8.98276
8.82891
8.69226
8.58006
8.49573
8.44049
8.41367
8.41367
8.44049
8.49573
8.58006
8.69226
8.82891
8.98276
9.15048
9.3285
9.50883
9.68642
9.85564
10.0175
10.17
10.3121
10.4433
10.564
10.675
10.7772
10.8712
10.9572
11.0347
11.1021
11.1565
11.1924
11.201
11.1698
11.0847
10.9389
10.7427
10.5281
10.335
10.19
10.0971
10.0451
10.0191
10.0074
10.0026
10.0009
10.0003
10.0001
10
10
10
10
10
10
10
10
10
10
10
10
10
10
10
10
10
10
10
10
10
10
10
10
10
10
10
10
10
10
10
10
10
10
11.1625
11.145
11.1049
11.0482
10.9792
10.9006
10.8143
10.7211
10.621
10.5131
10.3963
10.2696
10.1324
9.98491
9.8284
9.66326
9.49144
9.31842
9.15048
8.99375
8.85192
8.7308
8.63564
8.57007
8.53677
8.53677
8.57007
8.63564
8.7308
8.85192
8.99375
9.15048
9.31842
9.49144
9.66326
9.8284
9.98491
10.1323
10.2695
10.3961
10.5127
10.6202
10.7198
10.8124
10.8984
10.9774
11.0486
11.1099
11.1576
11.1852
11.1827
11.1365
11.0338
10.8718
10.6679
10.4583
10.2803
10.1535